
4 atoms
1 atom types
   0.0000000000    4.0500000000 xlo xhi
   0.0000000000    4.0500000000 ylo yhi
   0.0000000000    4.0500000000 zlo zhi
   0.0000000000    0.0000000000    0.0000000000 xy xz yz

Atoms # atomic

     1      1    0.0000000000    0.0000000000    0.0000000000
     2      1    0.0000000000    2.0250000000    2.0250000000
     3      1    2.0250000000    0.0000000000    2.0250000000
     4      1    2.0250000000    2.0250000000    0.0000000000
