   4   4   0   0
  0.1660753E+02  0.4050000E-09  0.4050000E-09  0.4050000E-09  0.1000000E-15
  1.000000000000000E-004
  CAR 
 Opt                                     
     21.07057082     -5.05954653  301      7.92042549      1.00000000
     -5.060  0.0000E+00  0.0000E+00
     -4.972  0.0000E+00  0.0000E+00
     -4.885  0.0000E+00  0.0000E+00
     -4.798  0.0000E+00  0.0000E+00
     -4.711 -0.1011E-31 -0.8803E-33
     -4.624 -0.1052E-28 -0.9173E-30
     -4.537 -0.7476E-26 -0.6520E-27
     -4.450 -0.3622E-23 -0.3161E-24
     -4.363 -0.1196E-20 -0.1044E-21
     -4.276 -0.2687E-18 -0.2351E-19
     -4.189 -0.3981E-16 -0.3491E-17
     -4.101 -0.4117E-14 -0.3621E-15
     -4.014 -0.2883E-12 -0.2547E-13
     -3.927 -0.1364E-10 -0.1213E-11
     -3.840 -0.4341E-09 -0.3903E-10
     -3.753 -0.9241E-08 -0.8440E-09
     -3.666 -0.1303E-06 -0.1219E-07
     -3.579 -0.1196E-05 -0.1164E-06
     -3.492 -0.6918E-05 -0.7190E-06
     -3.405 -0.2328E-04 -0.2747E-05
     -3.318 -0.3342E-04 -0.5658E-05
     -3.230  0.4347E-04 -0.1872E-05
     -3.143  0.2684E-03  0.2150E-04
     -3.056  0.5017E-03  0.6520E-04
     -2.969  0.6425E-03  0.1212E-03
     -2.882  0.9968E-03  0.2080E-03
     -2.795  0.1608E-02  0.3480E-03
     -2.708  0.1826E-02  0.5071E-03
     -2.621  0.1602E-02  0.6466E-03
     -2.534  0.1618E-02  0.7876E-03
     -2.447  0.1758E-02  0.9407E-03
     -2.359  0.1709E-02  0.1090E-02
     -2.272  0.1941E-02  0.1259E-02
     -2.185  0.2328E-02  0.1461E-02
     -2.098  0.2399E-02  0.1670E-02
     -2.011  0.2821E-02  0.1916E-02
     -1.924  0.3604E-02  0.2230E-02
     -1.837  0.3390E-02  0.2525E-02
     -1.750  0.2320E-02  0.2727E-02
     -1.663  0.1710E-02  0.2876E-02
     -1.576  0.1663E-02  0.3021E-02
     -1.488  0.2084E-02  0.3203E-02
     -1.401  0.3052E-02  0.3468E-02
     -1.314  0.3625E-02  0.3784E-02
     -1.227  0.3789E-02  0.4114E-02
     -1.140  0.4788E-02  0.4531E-02
     -1.053  0.5582E-02  0.5017E-02
     -0.966  0.4377E-02  0.5399E-02
     -0.879  0.2458E-02  0.5613E-02
     -0.792  0.1597E-02  0.5752E-02
     -0.705  0.1744E-02  0.5904E-02
     -0.617  0.2768E-02  0.6145E-02
     -0.530  0.4002E-02  0.6493E-02
     -0.443  0.4249E-02  0.6864E-02
     -0.356  0.4363E-02  0.7244E-02
     -0.269  0.5260E-02  0.7702E-02
     -0.182  0.5315E-02  0.8165E-02
     -0.095  0.4148E-02  0.8526E-02
     -0.008  0.3501E-02  0.8831E-02
      0.079  0.3458E-02  0.9132E-02
      0.166  0.3666E-02  0.9451E-02
      0.254  0.4705E-02  0.9861E-02
      0.341  0.5471E-02  0.1034E-01
      0.428  0.5059E-02  0.1078E-01
      0.515  0.5051E-02  0.1122E-01
      0.602  0.5479E-02  0.1170E-01
      0.689  0.4765E-02  0.1211E-01
      0.776  0.3773E-02  0.1244E-01
      0.863  0.3558E-02  0.1275E-01
      0.950  0.3286E-02  0.1304E-01
      1.037  0.3017E-02  0.1330E-01
      1.125  0.3255E-02  0.1358E-01
      1.212  0.3880E-02  0.1392E-01
      1.299  0.5882E-02  0.1443E-01
      1.386  0.8726E-02  0.1519E-01
      1.473  0.9026E-02  0.1598E-01
      1.560  0.6884E-02  0.1658E-01
      1.647  0.5619E-02  0.1707E-01
      1.734  0.5169E-02  0.1752E-01
      1.821  0.4337E-02  0.1789E-01
      1.908  0.3980E-02  0.1824E-01
      1.996  0.4125E-02  0.1860E-01
      2.083  0.4723E-02  0.1901E-01
      2.170  0.6492E-02  0.1958E-01
      2.257  0.7466E-02  0.2023E-01
      2.344  0.5483E-02  0.2071E-01
      2.431  0.2562E-02  0.2093E-01
      2.518  0.1436E-02  0.2105E-01
      2.605  0.2883E-02  0.2130E-01
      2.692  0.6447E-02  0.2187E-01
      2.779  0.9217E-02  0.2267E-01
      2.867  0.9150E-02  0.2347E-01
      2.954  0.8875E-02  0.2424E-01
      3.041  0.9374E-02  0.2506E-01
      3.128  0.7895E-02  0.2574E-01
      3.215  0.5029E-02  0.2618E-01
      3.302  0.3502E-02  0.2649E-01
      3.389  0.3641E-02  0.2680E-01
      3.476  0.5227E-02  0.2726E-01
      3.563  0.7108E-02  0.2788E-01
      3.650  0.7242E-02  0.2851E-01
      3.738  0.6777E-02  0.2910E-01
      3.825  0.7242E-02  0.2973E-01
      3.912  0.6843E-02  0.3033E-01
      3.999  0.5451E-02  0.3080E-01
      4.086  0.5113E-02  0.3125E-01
      4.173  0.5477E-02  0.3172E-01
      4.260  0.6009E-02  0.3225E-01
      4.347  0.7243E-02  0.3288E-01
      4.434  0.8091E-02  0.3358E-01
      4.521  0.8309E-02  0.3431E-01
      4.609  0.9233E-02  0.3511E-01
      4.696  0.9787E-02  0.3596E-01
      4.783  0.7944E-02  0.3665E-01
      4.870  0.4501E-02  0.3705E-01
      4.957  0.2255E-02  0.3724E-01
      5.044  0.3115E-02  0.3751E-01
      5.131  0.6127E-02  0.3805E-01
      5.218  0.8757E-02  0.3881E-01
      5.305  0.1045E-01  0.3972E-01
      5.393  0.1219E-01  0.4078E-01
      5.480  0.1297E-01  0.4191E-01
      5.567  0.1128E-01  0.4289E-01
      5.654  0.8160E-02  0.4360E-01
      5.741  0.5216E-02  0.4406E-01
      5.828  0.3198E-02  0.4434E-01
      5.915  0.3301E-02  0.4462E-01
      6.002  0.5764E-02  0.4513E-01
      6.089  0.8470E-02  0.4586E-01
      6.176  0.9272E-02  0.4667E-01
      6.264  0.8255E-02  0.4739E-01
      6.351  0.6799E-02  0.4798E-01
      6.438  0.5405E-02  0.4845E-01
      6.525  0.3890E-02  0.4879E-01
      6.612  0.3131E-02  0.4907E-01
      6.699  0.4228E-02  0.4943E-01
      6.786  0.6408E-02  0.4999E-01
      6.873  0.8597E-02  0.5074E-01
      6.960  0.1114E-01  0.5171E-01
      7.047  0.1301E-01  0.5284E-01
      7.135  0.1183E-01  0.5387E-01
      7.222  0.8536E-02  0.5462E-01
      7.309  0.6771E-02  0.5521E-01
      7.396  0.7548E-02  0.5587E-01
      7.483  0.8779E-02  0.5663E-01
      7.570  0.8605E-02  0.5738E-01
      7.657  0.7249E-02  0.5801E-01
      7.744  0.6680E-02  0.5859E-01
      7.831  0.7673E-02  0.5926E-01
      7.918  0.8304E-02  0.5998E-01
      8.006  0.7332E-02  0.6062E-01
      8.093  0.6116E-02  0.6116E-01
      8.180  0.5909E-02  0.6167E-01
      8.267  0.6389E-02  0.6223E-01
      8.354  0.7023E-02  0.6284E-01
      8.441  0.7910E-02  0.6353E-01
      8.528  0.9763E-02  0.6438E-01
      8.615  0.1263E-01  0.6548E-01
      8.702  0.1423E-01  0.6672E-01
      8.789  0.1209E-01  0.6777E-01
      8.877  0.7735E-02  0.6844E-01
      8.964  0.4863E-02  0.6887E-01
      9.051  0.4226E-02  0.6923E-01
      9.138  0.4710E-02  0.6965E-01
      9.225  0.6143E-02  0.7018E-01
      9.312  0.8237E-02  0.7090E-01
      9.399  0.9977E-02  0.7177E-01
      9.486  0.1037E-01  0.7267E-01
      9.573  0.8610E-02  0.7342E-01
      9.660  0.5470E-02  0.7390E-01
      9.748  0.4528E-02  0.7429E-01
      9.835  0.8349E-02  0.7502E-01
      9.922  0.1442E-01  0.7627E-01
     10.009  0.1763E-01  0.7781E-01
     10.096  0.1550E-01  0.7916E-01
     10.183  0.1057E-01  0.8008E-01
     10.270  0.7843E-02  0.8076E-01
     10.357  0.8422E-02  0.8150E-01
     10.444  0.8901E-02  0.8227E-01
     10.531  0.7435E-02  0.8292E-01
     10.619  0.5457E-02  0.8340E-01
     10.706  0.4685E-02  0.8380E-01
     10.793  0.5348E-02  0.8427E-01
     10.880  0.7130E-02  0.8489E-01
     10.967  0.1053E-01  0.8581E-01
     11.054  0.1457E-01  0.8708E-01
     11.141  0.1541E-01  0.8842E-01
     11.228  0.1211E-01  0.8947E-01
     11.315  0.8692E-02  0.9023E-01
     11.402  0.7079E-02  0.9085E-01
     11.490  0.6031E-02  0.9137E-01
     11.577  0.6229E-02  0.9192E-01
     11.664  0.8529E-02  0.9266E-01
     11.751  0.1054E-01  0.9358E-01
     11.838  0.9964E-02  0.9444E-01
     11.925  0.8253E-02  0.9516E-01
     12.012  0.7606E-02  0.9583E-01
     12.099  0.7971E-02  0.9652E-01
     12.186  0.8970E-02  0.9730E-01
     12.273  0.1026E-01  0.9819E-01
     12.361  0.1124E-01  0.9917E-01
     12.448  0.1288E-01  0.1003E+00
     12.535  0.1586E-01  0.1017E+00
     12.622  0.1792E-01  0.1032E+00
     12.709  0.1708E-01  0.1047E+00
     12.796  0.1416E-01  0.1060E+00
     12.883  0.1041E-01  0.1069E+00
     12.970  0.6474E-02  0.1074E+00
     13.057  0.3589E-02  0.1077E+00
     13.144  0.3406E-02  0.1080E+00
     13.232  0.5955E-02  0.1086E+00
     13.319  0.9434E-02  0.1094E+00
     13.406  0.1320E-01  0.1105E+00
     13.493  0.1675E-01  0.1120E+00
     13.580  0.1685E-01  0.1135E+00
     13.667  0.1258E-01  0.1146E+00
     13.754  0.9011E-02  0.1153E+00
     13.841  0.1003E-01  0.1162E+00
     13.928  0.1304E-01  0.1173E+00
     14.015  0.1330E-01  0.1185E+00
     14.103  0.1021E-01  0.1194E+00
     14.190  0.7613E-02  0.1201E+00
     14.277  0.8020E-02  0.1208E+00
     14.364  0.9734E-02  0.1216E+00
     14.451  0.1034E-01  0.1225E+00
     14.538  0.9795E-02  0.1234E+00
     14.625  0.1006E-01  0.1242E+00
     14.712  0.1193E-01  0.1253E+00
     14.799  0.1307E-01  0.1264E+00
     14.886  0.1240E-01  0.1275E+00
     14.974  0.1245E-01  0.1286E+00
     15.061  0.1341E-01  0.1297E+00
     15.148  0.1278E-01  0.1309E+00
     15.235  0.1099E-01  0.1318E+00
     15.322  0.9492E-02  0.1326E+00
     15.409  0.8413E-02  0.1334E+00
     15.496  0.8872E-02  0.1341E+00
     15.583  0.1117E-01  0.1351E+00
     15.670  0.1296E-01  0.1362E+00
     15.757  0.1276E-01  0.1374E+00
     15.845  0.1136E-01  0.1383E+00
     15.932  0.9518E-02  0.1392E+00
     16.019  0.7847E-02  0.1399E+00
     16.106  0.7919E-02  0.1406E+00
     16.193  0.9664E-02  0.1414E+00
     16.280  0.1055E-01  0.1423E+00
     16.367  0.1109E-01  0.1433E+00
     16.454  0.1343E-01  0.1444E+00
     16.541  0.1416E-01  0.1457E+00
     16.628  0.1042E-01  0.1466E+00
     16.716  0.7205E-02  0.1472E+00
     16.803  0.8290E-02  0.1479E+00
     16.890  0.1008E-01  0.1488E+00
     16.977  0.9050E-02  0.1496E+00
     17.064  0.7077E-02  0.1502E+00
     17.151  0.7503E-02  0.1509E+00
     17.238  0.9290E-02  0.1517E+00
     17.325  0.8593E-02  0.1524E+00
     17.412  0.5604E-02  0.1529E+00
     17.499  0.4024E-02  0.1533E+00
     17.587  0.4575E-02  0.1537E+00
     17.674  0.4743E-02  0.1541E+00
     17.761  0.3374E-02  0.1544E+00
     17.848  0.2303E-02  0.1546E+00
     17.935  0.3392E-02  0.1549E+00
     18.022  0.5160E-02  0.1553E+00
     18.109  0.4891E-02  0.1557E+00
     18.196  0.3223E-02  0.1560E+00
     18.283  0.2887E-02  0.1563E+00
     18.370  0.4471E-02  0.1567E+00
     18.458  0.6115E-02  0.1572E+00
     18.545  0.6548E-02  0.1578E+00
     18.632  0.6450E-02  0.1583E+00
     18.719  0.5789E-02  0.1588E+00
     18.806  0.3865E-02  0.1592E+00
     18.893  0.2112E-02  0.1594E+00
     18.980  0.1999E-02  0.1595E+00
     19.067  0.2479E-02  0.1597E+00
     19.154  0.2065E-02  0.1599E+00
     19.241  0.9400E-03  0.1600E+00
     19.329  0.1055E-03  0.1600E+00
     19.416 -0.1224E-03  0.1600E+00
     19.503 -0.7566E-04  0.1600E+00
     19.590 -0.2159E-04  0.1600E+00
     19.677 -0.3662E-05  0.1600E+00
     19.764 -0.3949E-06  0.1600E+00
     19.851 -0.2786E-07  0.1600E+00
     19.938 -0.1305E-08  0.1600E+00
     20.025 -0.4091E-10  0.1600E+00
     20.112 -0.8638E-12  0.1600E+00
     20.200 -0.1233E-13  0.1600E+00
     20.287 -0.1188E-15  0.1600E+00
     20.374 -0.1195E-17  0.1600E+00
     20.461  0.0000E+00  0.1600E+00
     20.548  0.0000E+00  0.1600E+00
     20.635  0.0000E+00  0.1600E+00
     20.722  0.0000E+00  0.1600E+00
     20.809  0.0000E+00  0.1600E+00
     20.896  0.0000E+00  0.1600E+00
     20.983  0.0000E+00  0.1600E+00
     21.071  0.0000E+00  0.1600E+00
