    4    4  200    1
  0.1660753E+02  0.4050000E-09  0.4050000E-09  0.4050000E-09  0.1000000E-15
  1.000000000000000E-004
  CAR 
 Opt                                     
     12    256     16
 
  0.6250000E-01  0.6250000E-01  0.6250000E-01  0.3906250E-02
    1       -3.059547   1.000000
    2        4.520220   1.000000
    3        4.520220   1.000000
    4        4.520220   1.000000
    5        7.056505   1.000000
    6        7.056505   1.000000
    7        7.056505   1.000000
    8       11.770833  -0.000000
    9       11.770833  -0.000000
   10       11.770833  -0.000000
   11       13.605291   0.000000
   12       13.605291   0.000000
   13       13.605291   0.000000
   14       14.540202   0.000000
   15       14.540202   0.000000
   16       14.540202   0.000000
 
  0.1875000E+00  0.6250000E-01  0.6250000E-01  0.3906250E-02
    1       -2.777314   1.000000
    2        2.736234   1.000000
    3        4.784329   1.000000
    4        4.784329   1.000000
    5        7.321604   1.000097
    6        7.321604   1.000097
    7        9.328157  -0.000000
    8       10.038965  -0.000000
    9       10.038965  -0.000000
   10       12.032488  -0.000000
   11       12.524505  -0.000000
   12       12.524505  -0.000000
   13       13.845334   0.000000
   14       14.804215   0.000000
   15       16.494387   0.000000
   16       16.494387   0.000000
 
  0.3125000E+00  0.6250000E-01  0.6250000E-01  0.3906250E-02
    1       -2.214519   1.000000
    2        1.113035   1.000000
    3        5.311338   1.000000
    4        5.311338   1.000000
    5        7.820133   0.870900
    6        7.820133   0.870900
    7        8.515778  -0.000106
    8        8.515778  -0.000106
    9       11.093941  -0.000000
   10       11.093941  -0.000000
   11       11.914399  -0.000000
   12       12.564124  -0.000000
   13       14.325701   0.000000
   14       15.330728   0.000000
   15       15.620478   0.000000
   16       17.204238   0.000000
 
  0.4375000E+00  0.6250000E-01  0.6250000E-01  0.3906250E-02
    1       -1.374545   1.000000
    2       -0.262660   1.000000
    3        6.096085   1.000000
    4        6.096085   1.000000
    5        7.150702   1.000000
    6        7.150702   1.000000
    7        8.623664  -0.000004
    8        8.623664  -0.000004
    9        9.873757  -0.000000
   10        9.873757  -0.000000
   11       13.316914  -0.000000
   12       14.348839   0.000000
   13       14.765242   0.000000
   14       15.046621   0.000000
   15       16.007416   0.000000
   16       16.117438   0.000000
 
 -0.4375000E+00  0.6250000E-01  0.6250000E-01  0.3906250E-02
    1       -1.374545   1.000000
    2       -0.262660   1.000000
    3        6.096085   1.000000
    4        6.096085   1.000000
    5        7.150702   1.000000
    6        7.150702   1.000000
    7        8.623664  -0.000004
    8        8.623664  -0.000004
    9        9.873757  -0.000000
   10        9.873757  -0.000000
   11       13.316914  -0.000000
   12       14.348839   0.000000
   13       14.765242   0.000000
   14       15.046621   0.000000
   15       16.007416   0.000000
   16       16.117438   0.000000
 
 -0.3125000E+00  0.6250000E-01  0.6250000E-01  0.3906250E-02
    1       -2.214519   1.000000
    2        1.113035   1.000000
    3        5.311338   1.000000
    4        5.311338   1.000000
    5        7.820133   0.870900
    6        7.820133   0.870900
    7        8.515778  -0.000106
    8        8.515778  -0.000106
    9       11.093941  -0.000000
   10       11.093941  -0.000000
   11       11.914399  -0.000000
   12       12.564124  -0.000000
   13       14.325701   0.000000
   14       15.330728   0.000000
   15       15.620478   0.000000
   16       17.204238   0.000000
 
 -0.1875000E+00  0.6250000E-01  0.6250000E-01  0.3906250E-02
    1       -2.777314   1.000000
    2        2.736234   1.000000
    3        4.784329   1.000000
    4        4.784329   1.000000
    5        7.321604   1.000097
    6        7.321604   1.000097
    7        9.328157  -0.000000
    8       10.038965  -0.000000
    9       10.038965  -0.000000
   10       12.032488  -0.000000
   11       12.524505  -0.000000
   12       12.524505  -0.000000
   13       13.845334   0.000000
   14       14.804215   0.000000
   15       16.494387   0.000000
   16       16.494387   0.000000
 
 -0.6250000E-01  0.6250000E-01  0.6250000E-01  0.3906250E-02
    1       -3.059547   1.000000
    2        4.520220   1.000000
    3        4.520220   1.000000
    4        4.520220   1.000000
    5        7.056505   1.000000
    6        7.056505   1.000000
    7        7.056505   1.000000
    8       11.770833  -0.000000
    9       11.770833  -0.000000
   10       11.770833  -0.000000
   11       13.605291   0.000000
   12       13.605291   0.000000
   13       13.605291   0.000000
   14       14.540202   0.000000
   15       14.540202   0.000000
   16       14.540202   0.000000
 
  0.6250000E-01  0.1875000E+00  0.6250000E-01  0.3906250E-02
    1       -2.777314   1.000000
    2        2.736234   1.000000
    3        4.784329   1.000000
    4        4.784329   1.000000
    5        7.321604   1.000097
    6        7.321604   1.000097
    7        9.328157  -0.000000
    8       10.038965  -0.000000
    9       10.038965  -0.000000
   10       12.032488  -0.000000
   11       12.524505  -0.000000
   12       12.524505  -0.000000
   13       13.845334   0.000000
   14       14.804215   0.000000
   15       16.494387   0.000000
   16       16.494387   0.000000
 
  0.1875000E+00  0.1875000E+00  0.6250000E-01  0.3906250E-02
    1       -2.495642   1.000000
    2        3.006630   1.000000
    3        3.006630   1.000000
    4        5.047723   1.000000
    5        7.551962   1.012858
    6        8.384954  -0.002465
    7        9.564768  -0.000000
    8        9.564768  -0.000000
    9       10.319146  -0.000000
   10       10.319146  -0.000000
   11       12.780692  -0.000000
   12       12.780692  -0.000000
   13       14.089218   0.000000
   14       15.427065   0.000000
   15       15.637223   0.000000
   16       16.751355   0.000000
 
  0.3125000E+00  0.1875000E+00  0.6250000E-01  0.3906250E-02
    1       -1.933971   1.000000
    2        1.387029   1.000000
    3        3.545904   1.000000
    4        5.570139   1.000000
    5        6.735821   1.000000
    6        8.181133  -0.034600
    7        8.719564  -0.000000
    8       10.095822  -0.000000
    9       10.797998  -0.000000
   10       11.387300  -0.000000
   11       12.177324  -0.000000
   12       13.208089  -0.000000
   13       13.306281  -0.000000
   14       13.909107   0.000000
   15       16.208081   0.000000
   16       17.262334   0.000000
 
  0.4375000E+00  0.1875000E+00  0.6250000E-01  0.3906250E-02
    1       -1.095657   1.000000
    2        0.014060   1.000000
    3        4.350446   1.000000
    4        5.409061   1.000000
    5        6.380063   1.000000
    6        7.421955   1.001198
    7        8.954952  -0.000000
    8        9.946297  -0.000000
    9       11.033106  -0.000000
   10       11.586386  -0.000000
   11       11.998788  -0.000000
   12       12.623843  -0.000000
   13       13.981730   0.000000
   14       14.993893   0.000000
   15       15.062734   0.000000
   16       18.030565   0.000000
 
 -0.4375000E+00  0.1875000E+00  0.6250000E-01  0.3906250E-02
    1       -1.095657   1.000000
    2        0.014060   1.000000
    3        4.350446   1.000000
    4        5.409061   1.000000
    5        6.380063   1.000000
    6        7.421955   1.001198
    7        8.954952  -0.000000
    8        9.946297  -0.000000
    9       11.033106  -0.000000
   10       11.586386  -0.000000
   11       11.998788  -0.000000
   12       12.623843  -0.000000
   13       13.981730   0.000000
   14       14.993893   0.000000
   15       15.062734   0.000000
   16       18.030013   0.000000
 
 -0.3125000E+00  0.1875000E+00  0.6250000E-01  0.3906250E-02
    1       -1.933971   1.000000
    2        1.387029   1.000000
    3        3.545904   1.000000
    4        5.570139   1.000000
    5        6.735821   1.000000
    6        8.181133  -0.034600
    7        8.719564  -0.000000
    8       10.095822  -0.000000
    9       10.797998  -0.000000
   10       11.387300  -0.000000
   11       12.177324  -0.000000
   12       13.208089  -0.000000
   13       13.306281  -0.000000
   14       13.909107   0.000000
   15       16.208081   0.000000
   16       17.262334   0.000000
 
 -0.1875000E+00  0.1875000E+00  0.6250000E-01  0.3906250E-02
    1       -2.495642   1.000000
    2        3.006630   1.000000
    3        3.006630   1.000000
    4        5.047723   1.000000
    5        7.551962   1.012858
    6        8.384954  -0.002465
    7        9.564768  -0.000000
    8        9.564768  -0.000000
    9       10.319146  -0.000000
   10       10.319146  -0.000000
   11       12.780692  -0.000000
   12       12.780692  -0.000000
   13       14.089218   0.000000
   14       15.427065   0.000000
   15       15.637223   0.000000
   16       16.751355   0.000000
 
 -0.6250000E-01  0.1875000E+00  0.6250000E-01  0.3906250E-02
    1       -2.777314   1.000000
    2        2.736234   1.000000
    3        4.784329   1.000000
    4        4.784329   1.000000
    5        7.321604   1.000097
    6        7.321604   1.000097
    7        9.328157  -0.000000
    8       10.038965  -0.000000
    9       10.038965  -0.000000
   10       12.032488  -0.000000
   11       12.524505  -0.000000
   12       12.524505  -0.000000
   13       13.845334   0.000000
   14       14.804215   0.000000
   15       16.494387   0.000000
   16       16.494387   0.000000
 
  0.6250000E-01  0.3125000E+00  0.6250000E-01  0.3906250E-02
    1       -2.214519   1.000000
    2        1.113035   1.000000
    3        5.311338   1.000000
    4        5.311338   1.000000
    5        7.820133   0.870900
    6        7.820133   0.870900
    7        8.515778  -0.000106
    8        8.515778  -0.000106
    9       11.093941  -0.000000
   10       11.093941  -0.000000
   11       11.914399  -0.000000
   12       12.564124  -0.000000
   13       14.325701   0.000000
   14       15.330728   0.000000
   15       15.620478   0.000000
   16       17.204238   0.000000
 
  0.1875000E+00  0.3125000E+00  0.6250000E-01  0.3906250E-02
    1       -1.933971   1.000000
    2        1.387029   1.000000
    3        3.545904   1.000000
    4        5.570139   1.000000
    5        6.735821   1.000000
    6        8.181133  -0.034600
    7        8.719564  -0.000000
    8       10.095822  -0.000000
    9       10.797998  -0.000000
   10       11.387300  -0.000000
   11       12.177324  -0.000000
   12       13.208089  -0.000000
   13       13.306281  -0.000000
   14       13.909107   0.000000
   15       16.208081   0.000000
   16       17.262334   0.000000
 
  0.3125000E+00  0.3125000E+00  0.6250000E-01  0.3906250E-02
    1       -1.374533   1.000000
    2        1.933502   1.000000
    3        1.933502   1.000000
    4        5.155746   1.000000
    5        6.117980   1.000000
    6        8.702848  -0.000000
    7        9.252437  -0.000000
    8        9.252437  -0.000000
    9       11.762300  -0.000000
   10       11.762300  -0.000000
   11       12.374922  -0.000000
   12       12.805640  -0.000000
   13       12.805640  -0.000000
   14       14.828900   0.000000
   15       15.058457   0.000000
   16       16.812736   0.000000
 
  0.4375000E+00  0.3125000E+00  0.6250000E-01  0.3906250E-02
    1       -0.539477   1.000000
    2        0.565956   1.000000
    3        2.749195   1.000000
    4        3.828358   1.000000
    5        6.900003   1.000000
    6        7.948109   0.384094
    7        9.494790  -0.000000
    8       10.038155  -0.000000
    9       10.532716  -0.000000
   10       11.080390  -0.000000
   11       12.580899  -0.000000
   12       13.519610   0.000000
   13       13.598474   0.000000
   14       14.463221   0.000000
   15       15.544241   0.000000
   16       18.441331   0.000000
 
 -0.4375000E+00  0.3125000E+00  0.6250000E-01  0.3906250E-02
    1       -0.539477   1.000000
    2        0.565956   1.000000
    3        2.749195   1.000000
    4        3.828358   1.000000
    5        6.900003   1.000000
    6        7.948109   0.384094
    7        9.494790  -0.000000
    8       10.038155  -0.000000
    9       10.532716  -0.000000
   10       11.080390  -0.000000
   11       12.580899  -0.000000
   12       13.519610   0.000000
   13       13.598474   0.000000
   14       14.463221   0.000000
   15       15.544241   0.000000
   16       18.441331   0.000000
 
 -0.3125000E+00  0.3125000E+00  0.6250000E-01  0.3906250E-02
    1       -1.374533   1.000000
    2        1.933502   1.000000
    3        1.933502   1.000000
    4        5.155746   1.000000
    5        6.117980   1.000000
    6        8.702848  -0.000000
    7        9.252437  -0.000000
    8        9.252437  -0.000000
    9       11.762300  -0.000000
   10       11.762300  -0.000000
   11       12.374922  -0.000000
   12       12.805640  -0.000000
   13       12.805640  -0.000000
   14       14.828900   0.000000
   15       15.058457   0.000000
   16       16.812736   0.000000
 
 -0.1875000E+00  0.3125000E+00  0.6250000E-01  0.3906250E-02
    1       -1.933971   1.000000
    2        1.387029   1.000000
    3        3.545904   1.000000
    4        5.570139   1.000000
    5        6.735821   1.000000
    6        8.181133  -0.034600
    7        8.719564  -0.000000
    8       10.095822  -0.000000
    9       10.797998  -0.000000
   10       11.387300  -0.000000
   11       12.177324  -0.000000
   12       13.208089  -0.000000
   13       13.306281  -0.000000
   14       13.909107   0.000000
   15       16.208081   0.000000
   16       17.262334   0.000000
 
 -0.6250000E-01  0.3125000E+00  0.6250000E-01  0.3906250E-02
    1       -2.214519   1.000000
    2        1.113035   1.000000
    3        5.311338   1.000000
    4        5.311338   1.000000
    5        7.820133   0.870900
    6        7.820133   0.870900
    7        8.515778  -0.000106
    8        8.515778  -0.000106
    9       11.093941  -0.000000
   10       11.093941  -0.000000
   11       11.914399  -0.000000
   12       12.564124  -0.000000
   13       14.325701   0.000000
   14       15.330728   0.000000
   15       15.620478   0.000000
   16       17.204238   0.000000
 
  0.6250000E-01  0.4375000E+00  0.6250000E-01  0.3906250E-02
    1       -1.374545   1.000000
    2       -0.262660   1.000000
    3        6.096085   1.000000
    4        6.096085   1.000000
    5        7.150702   1.000000
    6        7.150702   1.000000
    7        8.623664  -0.000004
    8        8.623664  -0.000004
    9        9.873757  -0.000000
   10        9.873757  -0.000000
   11       13.316914  -0.000000
   12       14.348839   0.000000
   13       14.765242   0.000000
   14       15.046621   0.000000
   15       16.007416   0.000000
   16       16.117438   0.000000
 
  0.1875000E+00  0.4375000E+00  0.6250000E-01  0.3906250E-02
    1       -1.095657   1.000000
    2        0.014060   1.000000
    3        4.350446   1.000000
    4        5.409061   1.000000
    5        6.380063   1.000000
    6        7.421955   1.001198
    7        8.954952  -0.000000
    8        9.946297  -0.000000
    9       11.033106  -0.000000
   10       11.586386  -0.000000
   11       11.998788  -0.000000
   12       12.623843  -0.000000
   13       13.981730   0.000000
   14       14.993893   0.000000
   15       15.062734   0.000000
   16       18.021550   0.000000
 
  0.3125000E+00  0.4375000E+00  0.6250000E-01  0.3906250E-02
    1       -0.539477   1.000000
    2        0.565956   1.000000
    3        2.749195   1.000000
    4        3.828358   1.000000
    5        6.900003   1.000000
    6        7.948109   0.384094
    7        9.494790  -0.000000
    8       10.038155  -0.000000
    9       10.532716  -0.000000
   10       11.080390  -0.000000
   11       12.580899  -0.000000
   12       13.519610   0.000000
   13       13.598474   0.000000
   14       14.463221   0.000000
   15       15.544241   0.000000
   16       18.441331   0.000000
 
  0.4375000E+00  0.4375000E+00  0.6250000E-01  0.3906250E-02
    1        0.290752   1.000000
    2        1.389805   1.000000
    3        1.389805   1.000000
    4        2.480344   1.000000
    5        7.687187   1.034886
    6        8.734736  -0.000000
    7        8.734736  -0.000000
    8        9.780219  -0.000000
    9       10.286967  -0.000000
   10       11.323831  -0.000000
   11       11.323831  -0.000000
   12       12.352052  -0.000000
   13       16.217337   0.000000
   14       16.217337   0.000000
   15       16.513762   0.000000
   16       18.429157   0.000000
 
 -0.4375000E+00  0.4375000E+00  0.6250000E-01  0.3906250E-02
    1        0.290752   1.000000
    2        1.389805   1.000000
    3        1.389805   1.000000
    4        2.480344   1.000000
    5        7.687187   1.034886
    6        8.734736  -0.000000
    7        8.734736  -0.000000
    8        9.780219  -0.000000
    9       10.286967  -0.000000
   10       11.323831  -0.000000
   11       11.323831  -0.000000
   12       12.352052  -0.000000
   13       16.217337   0.000000
   14       16.217337   0.000000
   15       16.513762   0.000000
   16       18.429691   0.000000
 
 -0.3125000E+00  0.4375000E+00  0.6250000E-01  0.3906250E-02
    1       -0.539477   1.000000
    2        0.565956   1.000000
    3        2.749195   1.000000
    4        3.828358   1.000000
    5        6.900003   1.000000
    6        7.948109   0.384094
    7        9.494790  -0.000000
    8       10.038155  -0.000000
    9       10.532716  -0.000000
   10       11.080390  -0.000000
   11       12.580899  -0.000000
   12       13.519610   0.000000
   13       13.598474   0.000000
   14       14.463221   0.000000
   15       15.544241   0.000000
   16       18.441331   0.000000
 
 -0.1875000E+00  0.4375000E+00  0.6250000E-01  0.3906250E-02
    1       -1.095657   1.000000
    2        0.014060   1.000000
    3        4.350446   1.000000
    4        5.409061   1.000000
    5        6.380063   1.000000
    6        7.421955   1.001198
    7        8.954952  -0.000000
    8        9.946297  -0.000000
    9       11.033106  -0.000000
   10       11.586386  -0.000000
   11       11.998788  -0.000000
   12       12.623843  -0.000000
   13       13.981730   0.000000
   14       14.993893   0.000000
   15       15.062734   0.000000
   16       18.020990   0.000000
 
 -0.6250000E-01  0.4375000E+00  0.6250000E-01  0.3906250E-02
    1       -1.374545   1.000000
    2       -0.262660   1.000000
    3        6.096085   1.000000
    4        6.096085   1.000000
    5        7.150702   1.000000
    6        7.150702   1.000000
    7        8.623664  -0.000004
    8        8.623664  -0.000004
    9        9.873757  -0.000000
   10        9.873757  -0.000000
   11       13.316914  -0.000000
   12       14.348839   0.000000
   13       14.765242   0.000000
   14       15.046621   0.000000
   15       16.007416   0.000000
   16       16.117438   0.000000
 
  0.6250000E-01 -0.4375000E+00  0.6250000E-01  0.3906250E-02
    1       -1.374545   1.000000
    2       -0.262660   1.000000
    3        6.096085   1.000000
    4        6.096085   1.000000
    5        7.150702   1.000000
    6        7.150702   1.000000
    7        8.623664  -0.000004
    8        8.623664  -0.000004
    9        9.873757  -0.000000
   10        9.873757  -0.000000
   11       13.316914  -0.000000
   12       14.348839   0.000000
   13       14.765242   0.000000
   14       15.046621   0.000000
   15       16.007416   0.000000
   16       16.117438   0.000000
 
  0.1875000E+00 -0.4375000E+00  0.6250000E-01  0.3906250E-02
    1       -1.095657   1.000000
    2        0.014060   1.000000
    3        4.350446   1.000000
    4        5.409061   1.000000
    5        6.380063   1.000000
    6        7.421955   1.001198
    7        8.954952  -0.000000
    8        9.946297  -0.000000
    9       11.033106  -0.000000
   10       11.586386  -0.000000
   11       11.998788  -0.000000
   12       12.623843  -0.000000
   13       13.981730   0.000000
   14       14.993893   0.000000
   15       15.062734   0.000000
   16       18.018957   0.000000
 
  0.3125000E+00 -0.4375000E+00  0.6250000E-01  0.3906250E-02
    1       -0.539477   1.000000
    2        0.565956   1.000000
    3        2.749195   1.000000
    4        3.828358   1.000000
    5        6.900003   1.000000
    6        7.948109   0.384094
    7        9.494790  -0.000000
    8       10.038155  -0.000000
    9       10.532716  -0.000000
   10       11.080390  -0.000000
   11       12.580899  -0.000000
   12       13.519610   0.000000
   13       13.598474   0.000000
   14       14.463221   0.000000
   15       15.544241   0.000000
   16       18.441331   0.000000
 
  0.4375000E+00 -0.4375000E+00  0.6250000E-01  0.3906250E-02
    1        0.290752   1.000000
    2        1.389805   1.000000
    3        1.389805   1.000000
    4        2.480344   1.000000
    5        7.687187   1.034886
    6        8.734736  -0.000000
    7        8.734736  -0.000000
    8        9.780219  -0.000000
    9       10.286967  -0.000000
   10       11.323831  -0.000000
   11       11.323831  -0.000000
   12       12.352052  -0.000000
   13       16.217337   0.000000
   14       16.217337   0.000000
   15       16.513762   0.000000
   16       18.428864   0.000000
 
 -0.4375000E+00 -0.4375000E+00  0.6250000E-01  0.3906250E-02
    1        0.290752   1.000000
    2        1.389805   1.000000
    3        1.389805   1.000000
    4        2.480344   1.000000
    5        7.687187   1.034886
    6        8.734736  -0.000000
    7        8.734736  -0.000000
    8        9.780219  -0.000000
    9       10.286967  -0.000000
   10       11.323831  -0.000000
   11       11.323831  -0.000000
   12       12.352052  -0.000000
   13       16.217337   0.000000
   14       16.217337   0.000000
   15       16.513762   0.000000
   16       18.430603   0.000000
 
 -0.3125000E+00 -0.4375000E+00  0.6250000E-01  0.3906250E-02
    1       -0.539477   1.000000
    2        0.565956   1.000000
    3        2.749195   1.000000
    4        3.828358   1.000000
    5        6.900003   1.000000
    6        7.948109   0.384094
    7        9.494790  -0.000000
    8       10.038155  -0.000000
    9       10.532716  -0.000000
   10       11.080390  -0.000000
   11       12.580899  -0.000000
   12       13.519610   0.000000
   13       13.598474   0.000000
   14       14.463221   0.000000
   15       15.544241   0.000000
   16       18.441331   0.000000
 
 -0.1875000E+00 -0.4375000E+00  0.6250000E-01  0.3906250E-02
    1       -1.095657   1.000000
    2        0.014060   1.000000
    3        4.350446   1.000000
    4        5.409061   1.000000
    5        6.380063   1.000000
    6        7.421955   1.001198
    7        8.954952  -0.000000
    8        9.946297  -0.000000
    9       11.033106  -0.000000
   10       11.586386  -0.000000
   11       11.998788  -0.000000
   12       12.623843  -0.000000
   13       13.981730   0.000000
   14       14.993893   0.000000
   15       15.062734   0.000000
   16       18.019420   0.000000
 
 -0.6250000E-01 -0.4375000E+00  0.6250000E-01  0.3906250E-02
    1       -1.374545   1.000000
    2       -0.262660   1.000000
    3        6.096085   1.000000
    4        6.096085   1.000000
    5        7.150702   1.000000
    6        7.150702   1.000000
    7        8.623664  -0.000004
    8        8.623664  -0.000004
    9        9.873757  -0.000000
   10        9.873757  -0.000000
   11       13.316914  -0.000000
   12       14.348839   0.000000
   13       14.765242   0.000000
   14       15.046621   0.000000
   15       16.007416   0.000000
   16       16.117438   0.000000
 
  0.6250000E-01 -0.3125000E+00  0.6250000E-01  0.3906250E-02
    1       -2.214519   1.000000
    2        1.113035   1.000000
    3        5.311338   1.000000
    4        5.311338   1.000000
    5        7.820133   0.870900
    6        7.820133   0.870900
    7        8.515778  -0.000106
    8        8.515778  -0.000106
    9       11.093941  -0.000000
   10       11.093941  -0.000000
   11       11.914399  -0.000000
   12       12.564124  -0.000000
   13       14.325701   0.000000
   14       15.330728   0.000000
   15       15.620478   0.000000
   16       17.204238   0.000000
 
  0.1875000E+00 -0.3125000E+00  0.6250000E-01  0.3906250E-02
    1       -1.933971   1.000000
    2        1.387029   1.000000
    3        3.545904   1.000000
    4        5.570139   1.000000
    5        6.735821   1.000000
    6        8.181133  -0.034600
    7        8.719564  -0.000000
    8       10.095822  -0.000000
    9       10.797998  -0.000000
   10       11.387300  -0.000000
   11       12.177324  -0.000000
   12       13.208089  -0.000000
   13       13.306281  -0.000000
   14       13.909107   0.000000
   15       16.208081   0.000000
   16       17.262334   0.000000
 
  0.3125000E+00 -0.3125000E+00  0.6250000E-01  0.3906250E-02
    1       -1.374533   1.000000
    2        1.933502   1.000000
    3        1.933502   1.000000
    4        5.155746   1.000000
    5        6.117980   1.000000
    6        8.702848  -0.000000
    7        9.252437  -0.000000
    8        9.252437  -0.000000
    9       11.762300  -0.000000
   10       11.762300  -0.000000
   11       12.374922  -0.000000
   12       12.805640  -0.000000
   13       12.805640  -0.000000
   14       14.828900   0.000000
   15       15.058457   0.000000
   16       16.812736   0.000000
 
  0.4375000E+00 -0.3125000E+00  0.6250000E-01  0.3906250E-02
    1       -0.539477   1.000000
    2        0.565956   1.000000
    3        2.749195   1.000000
    4        3.828358   1.000000
    5        6.900003   1.000000
    6        7.948109   0.384094
    7        9.494790  -0.000000
    8       10.038155  -0.000000
    9       10.532716  -0.000000
   10       11.080390  -0.000000
   11       12.580899  -0.000000
   12       13.519610   0.000000
   13       13.598474   0.000000
   14       14.463221   0.000000
   15       15.544241   0.000000
   16       18.441331   0.000000
 
 -0.4375000E+00 -0.3125000E+00  0.6250000E-01  0.3906250E-02
    1       -0.539477   1.000000
    2        0.565956   1.000000
    3        2.749195   1.000000
    4        3.828358   1.000000
    5        6.900003   1.000000
    6        7.948109   0.384094
    7        9.494790  -0.000000
    8       10.038155  -0.000000
    9       10.532716  -0.000000
   10       11.080390  -0.000000
   11       12.580899  -0.000000
   12       13.519610   0.000000
   13       13.598474   0.000000
   14       14.463221   0.000000
   15       15.544241   0.000000
   16       18.441331   0.000000
 
 -0.3125000E+00 -0.3125000E+00  0.6250000E-01  0.3906250E-02
    1       -1.374533   1.000000
    2        1.933502   1.000000
    3        1.933502   1.000000
    4        5.155746   1.000000
    5        6.117980   1.000000
    6        8.702848  -0.000000
    7        9.252437  -0.000000
    8        9.252437  -0.000000
    9       11.762300  -0.000000
   10       11.762300  -0.000000
   11       12.374922  -0.000000
   12       12.805640  -0.000000
   13       12.805640  -0.000000
   14       14.828900   0.000000
   15       15.058457   0.000000
   16       16.812736   0.000000
 
 -0.1875000E+00 -0.3125000E+00  0.6250000E-01  0.3906250E-02
    1       -1.933971   1.000000
    2        1.387029   1.000000
    3        3.545904   1.000000
    4        5.570139   1.000000
    5        6.735821   1.000000
    6        8.181133  -0.034600
    7        8.719564  -0.000000
    8       10.095822  -0.000000
    9       10.797998  -0.000000
   10       11.387300  -0.000000
   11       12.177324  -0.000000
   12       13.208089  -0.000000
   13       13.306281  -0.000000
   14       13.909107   0.000000
   15       16.208081   0.000000
   16       17.262334   0.000000
 
 -0.6250000E-01 -0.3125000E+00  0.6250000E-01  0.3906250E-02
    1       -2.214519   1.000000
    2        1.113035   1.000000
    3        5.311338   1.000000
    4        5.311338   1.000000
    5        7.820133   0.870900
    6        7.820133   0.870900
    7        8.515778  -0.000106
    8        8.515778  -0.000106
    9       11.093941  -0.000000
   10       11.093941  -0.000000
   11       11.914399  -0.000000
   12       12.564124  -0.000000
   13       14.325701   0.000000
   14       15.330728   0.000000
   15       15.620478   0.000000
   16       17.204238   0.000000
 
  0.6250000E-01 -0.1875000E+00  0.6250000E-01  0.3906250E-02
    1       -2.777314   1.000000
    2        2.736234   1.000000
    3        4.784329   1.000000
    4        4.784329   1.000000
    5        7.321604   1.000097
    6        7.321604   1.000097
    7        9.328157  -0.000000
    8       10.038965  -0.000000
    9       10.038965  -0.000000
   10       12.032488  -0.000000
   11       12.524505  -0.000000
   12       12.524505  -0.000000
   13       13.845334   0.000000
   14       14.804215   0.000000
   15       16.494387   0.000000
   16       16.494387   0.000000
 
  0.1875000E+00 -0.1875000E+00  0.6250000E-01  0.3906250E-02
    1       -2.495642   1.000000
    2        3.006630   1.000000
    3        3.006630   1.000000
    4        5.047723   1.000000
    5        7.551962   1.012858
    6        8.384954  -0.002465
    7        9.564768  -0.000000
    8        9.564768  -0.000000
    9       10.319146  -0.000000
   10       10.319146  -0.000000
   11       12.780692  -0.000000
   12       12.780692  -0.000000
   13       14.089218   0.000000
   14       15.427065   0.000000
   15       15.637223   0.000000
   16       16.751355   0.000000
 
  0.3125000E+00 -0.1875000E+00  0.6250000E-01  0.3906250E-02
    1       -1.933971   1.000000
    2        1.387029   1.000000
    3        3.545904   1.000000
    4        5.570139   1.000000
    5        6.735821   1.000000