       N       E                     dE             d eps       ncg     rms          rms(c)
DAV:   1     0.770455974717E+01    0.77046E+01   -0.45040E+03  8192   0.653E+02
DAV:   2    -0.141855702338E+02   -0.21890E+02   -0.20565E+02 10936   0.904E+01
DAV:   3    -0.148782580525E+02   -0.69269E+00   -0.68834E+00 10440   0.122E+01
DAV:   4    -0.148825728907E+02   -0.43148E-02   -0.43144E-02 10448   0.124E+00
DAV:   5    -0.148826208832E+02   -0.47993E-04   -0.47992E-04 10776   0.131E-01    0.182E+00
DAV:   6    -0.148354714052E+02    0.47149E-01   -0.62902E-03 10192   0.399E-01    0.113E+00
DAV:   7    -0.148040851230E+02    0.31386E-01   -0.17154E-02  9384   0.688E-01    0.544E-02
DAV:   8    -0.148041250743E+02   -0.39951E-04   -0.18630E-04 11664   0.821E-02    0.122E-02
DAV:   9    -0.148041318283E+02   -0.67540E-05   -0.29546E-06 10712   0.108E-02    0.172E-03
DAV:  10    -0.148041307206E+02    0.11077E-05   -0.25686E-08  8728   0.124E-03    0.280E-04
DAV:  11    -0.148041306121E+02    0.10849E-06   -0.19325E-09  7512   0.328E-04
   1 F= -.14804131E+02 E0= -.14803400E+02  d E =-.148041E+02
       N       E                     dE             d eps       ncg     rms          rms(c)
DAV:   1    -0.148043102826E+02   -0.17956E-03   -0.24469E-04 10344   0.667E-02    0.814E-03
DAV:   2    -0.148043096026E+02    0.68009E-06   -0.23790E-06 10040   0.785E-03    0.513E-03
DAV:   3    -0.148043093344E+02    0.26820E-06   -0.41091E-07  6568   0.350E-03    0.212E-04
DAV:   4    -0.148043093520E+02   -0.17638E-07   -0.26587E-08  5520   0.980E-04    0.120E-04
DAV:   5    -0.148043093701E+02   -0.18090E-07   -0.51344E-09  5912   0.385E-04    0.477E-05
DAV:   6    -0.148043093715E+02   -0.14201E-08   -0.10089E-09  5768   0.203E-04
   2 F= -.14804309E+02 E0= -.14803572E+02  d E =-.178759E-03
       N       E                     dE             d eps       ncg     rms          rms(c)
DAV:   1    -0.148045941595E+02   -0.28479E-03   -0.21984E-03  9832   0.200E-01    0.244E-02
DAV:   2    -0.148045864341E+02    0.77254E-05   -0.21399E-05  9496   0.235E-02    0.154E-02
DAV:   3    -0.148045812615E+02    0.51727E-05   -0.38795E-06  9920   0.105E-02    0.614E-04
DAV:   4    -0.148045813102E+02   -0.48717E-07   -0.46902E-08  5584   0.150E-03    0.367E-04
DAV:   5    -0.148045813748E+02   -0.64604E-07   -0.77320E-09  5624   0.585E-04    0.348E-05
DAV:   6    -0.148045813737E+02    0.11020E-08   -0.13197E-09  5608   0.267E-04
   3 F= -.14804581E+02 E0= -.14803824E+02  d E =-.450762E-03
