 vasp.5.4.4.18Apr17-6-g9f103f2a35 (build Nov 22 2021 14:44:17) complex          
  
 executed on             LinuxIFC date 2022.09.18  19:40:33
 running on   16 total cores
 distrk:  each k-point on   16 cores,    1 groups
 distr:  one band on NCORES_PER_BAND=   2 cores,    8 groups


--------------------------------------------------------------------------------------------------------


 INCAR:
 POTCAR:   PAW_GGA Al 05Jan2001                   
 POTCAR:   PAW_GGA Al 05Jan2001                   
   VRHFIN =Al: s2p1                                                             
   LEXCH  = 91                                                                  
   EATOM  =    53.6910 eV,    3.9462 Ry                                         
                                                                                
   TITEL  = PAW_GGA Al 05Jan2001                                                
   LULTRA =        F    use ultrasoft PP ?                                      
   IUNSCR =        1    unscreen: 0-lin 1-nonlin 2-no                           
   RPACOR =    1.500    partial core radius                                     
   POMASS =   26.982; ZVAL   =    3.000    mass and valenz                      
   RCORE  =    1.900    outmost cutoff radius                                   
   RWIGS  =    2.650; RWIGS  =    1.402    wigner-seitz radius (au A)           
   ENMAX  =  240.437; ENMIN  =  180.327 eV                                      
   ICORE  =        2    local potential                                         
   LCOR   =        T    correct aug charges                                     
   LPAW   =        T    paw PP                                                  
   EAUG   =  291.052                                                            
   DEXC   =    -.017                                                            
   RMAX   =    2.974    core radius for proj-oper                               
   RAUG   =    1.300    factor for augmentation sphere                          
   RDEP   =    1.966    core radius for depl-charge                             
   QCUT   =   -4.204; QGAM   =    8.408    optimization parameters              
                                                                                
   Description                                                                  
     l     E      TYP  RCUT    TYP  RCUT                                        
     0   .000     23  1.900                                                     
     0   .000     23  1.900                                                     
     1   .000     23  1.900                                                     
     1  1.000     23  1.900                                                     
     2   .000      7  1.900                                                     
  local pseudopotential read in
  partial core-charges read in
  atomic valenz-charges read in
  non local Contribution for L=           0  read in
    real space projection operators read in
  non local Contribution for L=           0  read in
    real space projection operators read in
  non local Contribution for L=           1  read in
    real space projection operators read in
  non local Contribution for L=           1  read in
    real space projection operators read in
    PAW grid and wavefunctions read in
 
   number of l-projection  operators is LMAX  =           4
   number of lm-projection operators is LMMAX =           8
 
 PAW_GGA Al 05Jan2001                   :
 energy of atom  1       EATOM=  -53.6910
 kinetic energy error for atom=    0.0002 (will be added to EATOM!!)
 
 
 POSCAR: Al4                                     
  positions in direct lattice
  No initial velocities read in
 exchange correlation table for  LEXCH =        7
   RHO(1)=    0.500       N(1)  =     2000
   RHO(2)=  100.500       N(2)  =     4000
 


--------------------------------------------------------------------------------------------------------


 ion  position               nearest neighbor table
   1  0.000  0.000  0.000-   2 2.86   3 2.86   4 2.86   2 2.86   3 2.86   2 2.86   4 2.86   2 2.86
                             3 2.86   4 2.86   3 2.86   4 2.86
   2  0.000  0.500  0.500-   1 2.86   3 2.86   4 2.86   1 2.86   4 2.86   1 2.86   3 2.86   1 2.86
                             3 2.86   4 2.86   4 2.86   3 2.86
   3  0.500  0.000  0.500-   1 2.86   2 2.86   4 2.86   1 2.86   4 2.86   2 2.86   4 2.86   4 2.86
                             1 2.86   2 2.86   1 2.86   2 2.86
   4  0.500  0.500  0.000-   1 2.86   2 2.86   3 2.86   2 2.86   3 2.86   1 2.86   3 2.86   3 2.86
                             1 2.86   2 2.86   2 2.86   1 2.86
 

IMPORTANT INFORMATION: All symmetrisations will be switched off!
NOSYMM: (Re-)initialisation of all symmetry stuff for point group C_1.

 
 
 KPOINTS: Automatic kpoint scheme                 

Automatic generation of k-mesh.
Space group operators:
 irot       det(A)        alpha          n_x          n_y          n_z        tau_x        tau_y        tau_z
    1     1.000000     0.000001     1.000000     0.000000     0.000000     0.000000     0.000000     0.000000
 
 Subroutine IBZKPT returns following result:
 ===========================================
 
 Found    256 irreducible k-points:
 
 Following reciprocal coordinates:
            Coordinates               Weight
  0.062500  0.062500  0.062500      2.000000
  0.187500  0.062500  0.062500      2.000000
  0.312500  0.062500  0.062500      2.000000
  0.437500  0.062500  0.062500      2.000000
 -0.437500  0.062500  0.062500      2.000000
 -0.312500  0.062500  0.062500      2.000000
 -0.187500  0.062500  0.062500      2.000000
 -0.062500  0.062500  0.062500      2.000000
  0.062500  0.187500  0.062500      2.000000
  0.187500  0.187500  0.062500      2.000000
  0.312500  0.187500  0.062500      2.000000
  0.437500  0.187500  0.062500      2.000000
 -0.437500  0.187500  0.062500      2.000000
 -0.312500  0.187500  0.062500      2.000000
 -0.187500  0.187500  0.062500      2.000000
 -0.062500  0.187500  0.062500      2.000000
  0.062500  0.312500  0.062500      2.000000
  0.187500  0.312500  0.062500      2.000000
  0.312500  0.312500  0.062500      2.000000
  0.437500  0.312500  0.062500      2.000000
 -0.437500  0.312500  0.062500      2.000000
 -0.312500  0.312500  0.062500      2.000000
 -0.187500  0.312500  0.062500      2.000000
 -0.062500  0.312500  0.062500      2.000000
  0.062500  0.437500  0.062500      2.000000
  0.187500  0.437500  0.062500      2.000000
  0.312500  0.437500  0.062500      2.000000
  0.437500  0.437500  0.062500      2.000000
 -0.437500  0.437500  0.062500      2.000000
 -0.312500  0.437500  0.062500      2.000000
 -0.187500  0.437500  0.062500      2.000000
 -0.062500  0.437500  0.062500      2.000000
  0.062500 -0.437500  0.062500      2.000000
  0.187500 -0.437500  0.062500      2.000000
  0.312500 -0.437500  0.062500      2.000000
  0.437500 -0.437500  0.062500      2.000000
 -0.437500 -0.437500  0.062500      2.000000
 -0.312500 -0.437500  0.062500      2.000000
 -0.187500 -0.437500  0.062500      2.000000
 -0.062500 -0.437500  0.062500      2.000000
  0.062500 -0.312500  0.062500      2.000000
  0.187500 -0.312500  0.062500      2.000000
  0.312500 -0.312500  0.062500      2.000000
  0.437500 -0.312500  0.062500      2.000000
 -0.437500 -0.312500  0.062500      2.000000
 -0.312500 -0.312500  0.062500      2.000000
 -0.187500 -0.312500  0.062500      2.000000
 -0.062500 -0.312500  0.062500      2.000000
  0.062500 -0.187500  0.062500      2.000000
  0.187500 -0.187500  0.062500      2.000000
  0.312500 -0.187500  0.062500      2.000000
  0.437500 -0.187500  0.062500      2.000000
 -0.437500 -0.187500  0.062500      2.000000
 -0.312500 -0.187500  0.062500      2.000000
 -0.187500 -0.187500  0.062500      2.000000
 -0.062500 -0.187500  0.062500      2.000000
  0.062500 -0.062500  0.062500      2.000000
  0.187500 -0.062500  0.062500      2.000000
  0.312500 -0.062500  0.062500      2.000000
  0.437500 -0.062500  0.062500      2.000000
 -0.437500 -0.062500  0.062500      2.000000
 -0.312500 -0.062500  0.062500      2.000000
 -0.187500 -0.062500  0.062500      2.000000
 -0.062500 -0.062500  0.062500      2.000000
  0.062500  0.062500  0.187500      2.000000
  0.187500  0.062500  0.187500      2.000000
  0.312500  0.062500  0.187500      2.000000
  0.437500  0.062500  0.187500      2.000000
 -0.437500  0.062500  0.187500      2.000000
 -0.312500  0.062500  0.187500      2.000000
 -0.187500  0.062500  0.187500      2.000000
 -0.062500  0.062500  0.187500      2.000000
  0.062500  0.187500  0.187500      2.000000
  0.187500  0.187500  0.187500      2.000000
  0.312500  0.187500  0.187500      2.000000
  0.437500  0.187500  0.187500      2.000000
 -0.437500  0.187500  0.187500      2.000000
 -0.312500  0.187500  0.187500      2.000000
 -0.187500  0.187500  0.187500      2.000000
 -0.062500  0.187500  0.187500      2.000000
  0.062500  0.312500  0.187500      2.000000
  0.187500  0.312500  0.187500      2.000000
  0.312500  0.312500  0.187500      2.000000
  0.437500  0.312500  0.187500      2.000000
 -0.437500  0.312500  0.187500      2.000000
 -0.312500  0.312500  0.187500      2.000000
 -0.187500  0.312500  0.187500      2.000000
 -0.062500  0.312500  0.187500      2.000000
  0.062500  0.437500  0.187500      2.000000
  0.187500  0.437500  0.187500      2.000000
  0.312500  0.437500  0.187500      2.000000
  0.437500  0.437500  0.187500      2.000000
 -0.437500  0.437500  0.187500      2.000000
 -0.312500  0.437500  0.187500      2.000000
 -0.187500  0.437500  0.187500      2.000000
 -0.062500  0.437500  0.187500      2.000000
  0.062500 -0.437500  0.187500      2.000000
  0.187500 -0.437500  0.187500      2.000000
  0.312500 -0.437500  0.187500      2.000000
  0.437500 -0.437500  0.187500      2.000000
 -0.437500 -0.437500  0.187500      2.000000
 -0.312500 -0.437500  0.187500      2.000000
 -0.187500 -0.437500  0.187500      2.000000
 -0.062500 -0.437500  0.187500      2.000000
  0.062500 -0.312500  0.187500      2.000000
  0.187500 -0.312500  0.187500      2.000000
  0.312500 -0.312500  0.187500      2.000000
  0.437500 -0.312500  0.187500      2.000000
 -0.437500 -0.312500  0.187500      2.000000
 -0.312500 -0.312500  0.187500      2.000000
 -0.187500 -0.312500  0.187500      2.000000
 -0.062500 -0.312500  0.187500      2.000000
  0.062500 -0.187500  0.187500      2.000000
  0.187500 -0.187500  0.187500      2.000000
  0.312500 -0.187500  0.187500      2.000000
  0.437500 -0.187500  0.187500      2.000000
 -0.437500 -0.187500  0.187500      2.000000
 -0.312500 -0.187500  0.187500      2.000000
 -0.187500 -0.187500  0.187500      2.000000
 -0.062500 -0.187500  0.187500      2.000000
  0.062500 -0.062500  0.187500      2.000000
  0.187500 -0.062500  0.187500      2.000000
  0.312500 -0.062500  0.187500      2.000000
  0.437500 -0.062500  0.187500      2.000000
 -0.437500 -0.062500  0.187500      2.000000
 -0.312500 -0.062500  0.187500      2.000000
 -0.187500 -0.062500  0.187500      2.000000
 -0.062500 -0.062500  0.187500      2.000000
  0.062500  0.062500  0.312500      2.000000
  0.187500  0.062500  0.312500      2.000000
  0.312500  0.062500  0.312500      2.000000
  0.437500  0.062500  0.312500      2.000000
 -0.437500  0.062500  0.312500      2.000000
 -0.312500  0.062500  0.312500      2.000000
 -0.187500  0.062500  0.312500      2.000000
 -0.062500  0.062500  0.312500      2.000000
  0.062500  0.187500  0.312500      2.000000
  0.187500  0.187500  0.312500      2.000000
  0.312500  0.187500  0.312500      2.000000
  0.437500  0.187500  0.312500      2.000000
 -0.437500  0.187500  0.312500      2.000000
 -0.312500  0.187500  0.312500      2.000000
 -0.187500  0.187500  0.312500      2.000000
 -0.062500  0.187500  0.312500      2.000000
  0.062500  0.312500  0.312500      2.000000
  0.187500  0.312500  0.312500      2.000000
  0.312500  0.312500  0.312500      2.000000
  0.437500  0.312500  0.312500      2.000000
 -0.437500  0.312500  0.312500      2.000000
 -0.312500  0.312500  0.312500      2.000000
 -0.187500  0.312500  0.312500      2.000000
 -0.062500  0.312500  0.312500      2.000000
  0.062500  0.437500  0.312500      2.000000
  0.187500  0.437500  0.312500      2.000000
  0.312500  0.437500  0.312500      2.000000
  0.437500  0.437500  0.312500      2.000000
 -0.437500  0.437500  0.312500      2.000000
 -0.312500  0.437500  0.312500      2.000000
 -0.187500  0.437500  0.312500      2.000000
 -0.062500  0.437500  0.312500      2.000000
  0.062500 -0.437500  0.312500      2.000000
  0.187500 -0.437500  0.312500      2.000000
  0.312500 -0.437500  0.312500      2.000000
  0.437500 -0.437500  0.312500      2.000000
 -0.437500 -0.437500  0.312500      2.000000
 -0.312500 -0.437500  0.312500      2.000000
 -0.187500 -0.437500  0.312500      2.000000
 -0.062500 -0.437500  0.312500      2.000000
  0.062500 -0.312500  0.312500      2.000000
  0.187500 -0.312500  0.312500      2.000000
  0.312500 -0.312500  0.312500      2.000000
  0.437500 -0.312500  0.312500      2.000000
 -0.437500 -0.312500  0.312500      2.000000
 -0.312500 -0.312500  0.312500      2.000000
 -0.187500 -0.312500  0.312500      2.000000
 -0.062500 -0.312500  0.312500      2.000000
  0.062500 -0.187500  0.312500      2.000000
  0.187500 -0.187500  0.312500      2.000000
  0.312500 -0.187500  0.312500      2.000000
  0.437500 -0.187500  0.312500      2.000000
 -0.437500 -0.187500  0.312500      2.000000
 -0.312500 -0.187500  0.312500      2.000000
 -0.187500 -0.187500  0.312500      2.000000
 -0.062500 -0.187500  0.312500      2.000000
  0.062500 -0.062500  0.312500      2.000000
  0.187500 -0.062500  0.312500      2.000000
  0.312500 -0.062500  0.312500      2.000000
  0.437500 -0.062500  0.312500      2.000000
 -0.437500 -0.062500  0.312500      2.000000
 -0.312500 -0.062500  0.312500      2.000000
 -0.187500 -0.062500  0.312500      2.000000
 -0.062500 -0.062500  0.312500      2.000000
  0.062500  0.062500  0.437500      2.000000
  0.187500  0.062500  0.437500      2.000000
  0.312500  0.062500  0.437500      2.000000
  0.437500  0.062500  0.437500      2.000000
 -0.437500  0.062500  0.437500      2.000000
 -0.312500  0.062500  0.437500      2.000000
 -0.187500  0.062500  0.437500      2.000000
 -0.062500  0.062500  0.437500      2.000000
  0.062500  0.187500  0.437500      2.000000
  0.187500  0.187500  0.437500      2.000000
  0.312500  0.187500  0.437500      2.000000
  0.437500  0.187500  0.437500      2.000000
 -0.437500  0.187500  0.437500      2.000000
 -0.312500  0.187500  0.437500      2.000000
 -0.187500  0.187500  0.437500      2.000000
 -0.062500  0.187500  0.437500      2.000000
  0.062500  0.312500  0.437500      2.000000
  0.187500  0.312500  0.437500      2.000000
  0.312500  0.312500  0.437500      2.000000
  0.437500  0.312500  0.437500      2.000000
 -0.437500  0.312500  0.437500      2.000000
 -0.312500  0.312500  0.437500      2.000000
 -0.187500  0.312500  0.437500      2.000000
 -0.062500  0.312500  0.437500      2.000000
  0.062500  0.437500  0.437500      2.000000
  0.187500  0.437500  0.437500      2.000000
  0.312500  0.437500  0.437500      2.000000
  0.437500  0.437500  0.437500      2.000000
 -0.437500  0.437500  0.437500      2.000000
 -0.312500  0.437500  0.437500      2.000000
 -0.187500  0.437500  0.437500      2.000000
 -0.062500  0.437500  0.437500      2.000000
  0.062500 -0.437500  0.437500      2.000000
  0.187500 -0.437500  0.437500      2.000000
  0.312500 -0.437500  0.437500      2.000000
  0.437500 -0.437500  0.437500      2.000000
 -0.437500 -0.437500  0.437500      2.000000
 -0.312500 -0.437500  0.437500      2.000000
 -0.187500 -0.437500  0.437500      2.000000
 -0.062500 -0.437500  0.437500      2.000000
  0.062500 -0.312500  0.437500      2.000000
  0.187500 -0.312500  0.437500      2.000000
  0.312500 -0.312500  0.437500      2.000000
  0.437500 -0.312500  0.437500      2.000000
 -0.437500 -0.312500  0.437500      2.000000
 -0.312500 -0.312500  0.437500      2.000000
 -0.187500 -0.312500  0.437500      2.000000
 -0.062500 -0.312500  0.437500      2.000000
  0.062500 -0.187500  0.437500      2.000000
  0.187500 -0.187500  0.437500      2.000000
  0.312500 -0.187500  0.437500      2.000000
  0.437500 -0.187500  0.437500      2.000000
 -0.437500 -0.187500  0.437500      2.000000
 -0.312500 -0.187500  0.437500      2.000000
 -0.187500 -0.187500  0.437500      2.000000
 -0.062500 -0.187500  0.437500      2.000000
  0.062500 -0.062500  0.437500      2.000000
  0.187500 -0.062500  0.437500      2.000000
  0.312500 -0.062500  0.437500      2.000000
  0.437500 -0.062500  0.437500      2.000000
 -0.437500 -0.062500  0.437500      2.000000
 -0.312500 -0.062500  0.437500      2.000000
 -0.187500 -0.062500  0.437500      2.000000
 -0.062500 -0.062500  0.437500      2.000000
 
 Following cartesian coordinates:
            Coordinates               Weight
  0.015432  0.015432  0.015432      2.000000
  0.046296  0.015432  0.015432      2.000000
  0.077160  0.015432  0.015432      2.000000
  0.108025  0.015432  0.015432      2.000000
 -0.108025  0.015432  0.015432      2.000000
 -0.077160  0.015432  0.015432      2.000000
 -0.046296  0.015432  0.015432      2.000000
 -0.015432  0.015432  0.015432      2.000000
  0.015432  0.046296  0.015432      2.000000
  0.046296  0.046296  0.015432      2.000000
  0.077160  0.046296  0.015432      2.000000
  0.108025  0.046296  0.015432      2.000000
 -0.108025  0.046296  0.015432      2.000000
 -0.077160  0.046296  0.015432      2.000000
 -0.046296  0.046296  0.015432      2.000000
 -0.015432  0.046296  0.015432      2.000000
  0.015432  0.077160  0.015432      2.000000
  0.046296  0.077160  0.015432      2.000000
  0.077160  0.077160  0.015432      2.000000
  0.108025  0.077160  0.015432      2.000000
 -0.108025  0.077160  0.015432      2.000000
 -0.077160  0.077160  0.015432      2.000000
 -0.046296  0.077160  0.015432      2.000000
 -0.015432  0.077160  0.015432      2.000000
  0.015432  0.108025  0.015432      2.000000
  0.046296  0.108025  0.015432      2.000000
  0.077160  0.108025  0.015432      2.000000
  0.108025  0.108025  0.015432      2.000000
 -0.108025  0.108025  0.015432      2.000000
 -0.077160  0.108025  0.015432      2.000000
 -0.046296  0.108025  0.015432      2.000000
 -0.015432  0.108025  0.015432      2.000000
  0.015432 -0.108025  0.015432      2.000000
  0.046296 -0.108025  0.015432      2.000000
  0.077160 -0.108025  0.015432      2.000000
  0.108025 -0.108025  0.015432      2.000000
 -0.108025 -0.108025  0.015432      2.000000
 -0.077160 -0.108025  0.015432      2.000000
 -0.046296 -0.108025  0.015432      2.000000
 -0.015432 -0.108025  0.015432      2.000000
  0.015432 -0.077160  0.015432      2.000000
  0.046296 -0.077160  0.015432      2.000000
  0.077160 -0.077160  0.015432      2.000000
  0.108025 -0.077160  0.015432      2.000000
 -0.108025 -0.077160  0.015432      2.000000
 -0.077160 -0.077160  0.015432      2.000000
 -0.046296 -0.077160  0.015432      2.000000
 -0.015432 -0.077160  0.015432      2.000000
  0.015432 -0.046296  0.015432      2.000000
  0.046296 -0.046296  0.015432      2.000000
  0.077160 -0.046296  0.015432      2.000000
  0.108025 -0.046296  0.015432      2.000000
 -0.108025 -0.046296  0.015432      2.000000
 -0.077160 -0.046296  0.015432      2.000000
 -0.046296 -0.046296  0.015432      2.000000
 -0.015432 -0.046296  0.015432      2.000000
  0.015432 -0.015432  0.015432      2.000000
  0.046296 -0.015432  0.015432      2.000000
  0.077160 -0.015432  0.015432      2.000000
  0.108025 -0.015432  0.015432      2.000000
 -0.108025 -0.015432  0.015432      2.000000
 -0.077160 -0.015432  0.015432      2.000000
 -0.046296 -0.015432  0.015432      2.000000
 -0.015432 -0.015432  0.015432      2.000000
  0.015432  0.015432  0.046296      2.000000
  0.046296  0.015432  0.046296      2.000000
  0.077160  0.015432  0.046296      2.000000
  0.108025  0.015432  0.046296      2.000000
 -0.108025  0.015432  0.046296      2.000000
 -0.077160  0.015432  0.046296      2.000000
 -0.046296  0.015432  0.046296      2.000000
 -0.015432  0.015432  0.046296      2.000000
  0.015432  0.046296  0.046296      2.000000
  0.046296  0.046296  0.046296      2.000000
  0.077160  0.046296  0.046296      2.000000
  0.108025  0.046296  0.046296      2.000000
 -0.108025  0.046296  0.046296      2.000000
 -0.077160  0.046296  0.046296      2.000000
 -0.046296  0.046296  0.046296      2.000000
 -0.015432  0.046296  0.046296      2.000000
  0.015432  0.077160  0.046296      2.000000
  0.046296  0.077160  0.046296      2.000000
  0.077160  0.077160  0.046296      2.000000
  0.108025  0.077160  0.046296      2.000000
 -0.108025  0.077160  0.046296      2.000000
 -0.077160  0.077160  0.046296      2.000000
 -0.046296  0.077160  0.046296      2.000000
 -0.015432  0.077160  0.046296      2.000000
  0.015432  0.108025  0.046296      2.000000
  0.046296  0.108025  0.046296      2.000000
  0.077160  0.108025  0.046296      2.000000
  0.108025  0.108025  0.046296      2.000000
 -0.108025  0.108025  0.046296      2.000000
 -0.077160  0.108025  0.046296      2.000000
 -0.046296  0.108025  0.046296      2.000000
 -0.015432  0.108025  0.046296      2.000000
  0.015432 -0.108025  0.046296      2.000000
  0.046296 -0.108025  0.046296      2.000000
  0.077160 -0.108025  0.046296      2.000000
  0.108025 -0.108025  0.046296      2.000000
 -0.108025 -0.108025  0.046296      2.000000
 -0.077160 -0.108025  0.046296      2.000000
 -0.046296 -0.108025  0.046296      2.000000
 -0.015432 -0.108025  0.046296      2.000000
  0.015432 -0.077160  0.046296      2.000000
  0.046296 -0.077160  0.046296      2.000000
  0.077160 -0.077160  0.046296      2.000000
  0.108025 -0.077160  0.046296      2.000000
 -0.108025 -0.077160  0.046296      2.000000
 -0.077160 -0.077160  0.046296      2.000000
 -0.046296 -0.077160  0.046296      2.000000
 -0.015432 -0.077160  0.046296      2.000000
  0.015432 -0.046296  0.046296      2.000000
  0.046296 -0.046296  0.046296      2.000000
  0.077160 -0.046296  0.046296      2.000000
  0.108025 -0.046296  0.046296      2.000000
 -0.108025 -0.046296  0.046296      2.000000
 -0.077160 -0.046296  0.046296      2.000000
 -0.046296 -0.046296  0.046296      2.000000
 -0.015432 -0.046296  0.046296      2.000000
  0.015432 -0.015432  0.046296      2.000000
  0.046296 -0.015432  0.046296      2.000000
  0.077160 -0.015432  0.046296      2.000000
  0.108025 -0.015432  0.046296      2.000000
 -0.108025 -0.015432  0.046296      2.000000
 -0.077160 -0.015432  0.046296      2.000000
 -0.046296 -0.015432  0.046296      2.000000
 -0.015432 -0.015432  0.046296      2.000000
  0.015432  0.015432  0.077160      2.000000
  0.046296  0.015432  0.077160      2.000000
  0.077160  0.015432  0.077160      2.000000
  0.108025  0.015432  0.077160      2.000000
 -0.108025  0.015432  0.077160      2.000000
 -0.077160  0.015432  0.077160      2.000000
 -0.046296  0.015432  0.077160      2.000000
 -0.015432  0.015432  0.077160      2.000000
  0.015432  0.046296  0.077160      2.000000
  0.046296  0.046296  0.077160      2.000000
  0.077160  0.046296  0.077160      2.000000
  0.108025  0.046296  0.077160      2.000000
 -0.108025  0.046296  0.077160      2.000000
 -0.077160  0.046296  0.077160      2.000000
 -0.046296  0.046296  0.077160      2.000000
 -0.015432  0.046296  0.077160      2.000000
  0.015432  0.077160  0.077160      2.000000
  0.046296  0.077160  0.077160      2.000000
  0.077160  0.077160  0.077160      2.000000
  0.108025  0.077160  0.077160      2.000000
 -0.108025  0.077160  0.077160      2.000000
 -0.077160  0.077160  0.077160      2.000000
 -0.046296  0.077160  0.077160      2.000000
 -0.015432  0.077160  0.077160      2.000000
  0.015432  0.108025  0.077160      2.000000
  0.046296  0.108025  0.077160      2.000000
  0.077160  0.108025  0.077160      2.000000
  0.108025  0.108025  0.077160      2.000000
 -0.108025  0.108025  0.077160      2.000000
 -0.077160  0.108025  0.077160      2.000000
 -0.046296  0.108025  0.077160      2.000000
 -0.015432  0.108025  0.077160      2.000000
  0.015432 -0.108025  0.077160      2.000000
  0.046296 -0.108025  0.077160      2.000000
  0.077160 -0.108025  0.077160      2.000000
  0.108025 -0.108025  0.077160      2.000000
 -0.108025 -0.108025  0.077160      2.000000
 -0.077160 -0.108025  0.077160      2.000000
 -0.046296 -0.108025  0.077160      2.000000
 -0.015432 -0.108025  0.077160      2.000000
  0.015432 -0.077160  0.077160      2.000000
  0.046296 -0.077160  0.077160      2.000000
  0.077160 -0.077160  0.077160      2.000000
  0.108025 -0.077160  0.077160      2.000000
 -0.108025 -0.077160  0.077160      2.000000
 -0.077160 -0.077160  0.077160      2.000000
 -0.046296 -0.077160  0.077160      2.000000
 -0.015432 -0.077160  0.077160      2.000000
  0.015432 -0.046296  0.077160      2.000000
  0.046296 -0.046296  0.077160      2.000000
  0.077160 -0.046296  0.077160      2.000000
  0.108025 -0.046296  0.077160      2.000000
 -0.108025 -0.046296  0.077160      2.000000
 -0.077160 -0.046296  0.077160      2.000000
 -0.046296 -0.046296  0.077160      2.000000
 -0.015432 -0.046296  0.077160      2.000000
  0.015432 -0.015432  0.077160      2.000000
  0.046296 -0.015432  0.077160      2.000000
  0.077160 -0.015432  0.077160      2.000000
  0.108025 -0.015432  0.077160      2.000000
 -0.108025 -0.015432  0.077160      2.000000
 -0.077160 -0.015432  0.077160      2.000000
 -0.046296 -0.015432  0.077160      2.000000
 -0.015432 -0.015432  0.077160      2.000000
  0.015432  0.015432  0.108025      2.000000
  0.046296  0.015432  0.108025      2.000000
  0.077160  0.015432  0.108025      2.000000
  0.108025  0.015432  0.108025      2.000000
 -0.108025  0.015432  0.108025      2.000000
 -0.077160  0.015432  0.108025      2.000000
 -0.046296  0.015432  0.108025      2.000000
 -0.015432  0.015432  0.108025      2.000000
  0.015432  0.046296  0.108025      2.000000
  0.046296  0.046296  0.108025      2.000000
  0.077160  0.046296  0.108025      2.000000
  0.108025  0.046296  0.108025      2.000000
 -0.108025  0.046296  0.108025      2.000000
 -0.077160  0.046296  0.108025      2.000000
 -0.046296  0.046296  0.108025      2.000000
 -0.015432  0.046296  0.108025      2.000000
  0.015432  0.077160  0.108025      2.000000
  0.046296  0.077160  0.108025      2.000000
  0.077160  0.077160  0.108025      2.000000
  0.108025  0.077160  0.108025      2.000000
 -0.108025  0.077160  0.108025      2.000000
 -0.077160  0.077160  0.108025      2.000000
 -0.046296  0.077160  0.108025      2.000000
 -0.015432  0.077160  0.108025      2.000000
  0.015432  0.108025  0.108025      2.000000
  0.046296  0.108025  0.108025      2.000000
  0.077160  0.108025  0.108025      2.000000
  0.108025  0.108025  0.108025      2.000000
 -0.108025  0.108025  0.108025      2.000000
 -0.077160  0.108025  0.108025      2.000000
 -0.046296  0.108025  0.108025      2.000000
 -0.015432  0.108025  0.108025      2.000000
  0.015432 -0.108025  0.108025      2.000000
  0.046296 -0.108025  0.108025      2.000000
  0.077160 -0.108025  0.108025      2.000000
  0.108025 -0.108025  0.108025      2.000000
 -0.108025 -0.108025  0.108025      2.000000
 -0.077160 -0.108025  0.108025      2.000000
 -0.046296 -0.108025  0.108025      2.000000
 -0.015432 -0.108025  0.108025      2.000000
  0.015432 -0.077160  0.108025      2.000000
  0.046296 -0.077160  0.108025      2.000000
  0.077160 -0.077160  0.108025      2.000000
  0.108025 -0.077160  0.108025      2.000000
 -0.108025 -0.077160  0.108025      2.000000
 -0.077160 -0.077160  0.108025      2.000000
 -0.046296 -0.077160  0.108025      2.000000
 -0.015432 -0.077160  0.108025      2.000000
  0.015432 -0.046296  0.108025      2.000000
  0.046296 -0.046296  0.108025      2.000000
  0.077160 -0.046296  0.108025      2.000000
  0.108025 -0.046296  0.108025      2.000000
 -0.108025 -0.046296  0.108025      2.000000
 -0.077160 -0.046296  0.108025      2.000000
 -0.046296 -0.046296  0.108025      2.000000
 -0.015432 -0.046296  0.108025      2.000000
  0.015432 -0.015432  0.108025      2.000000
  0.046296 -0.015432  0.108025      2.000000
  0.077160 -0.015432  0.108025      2.000000
  0.108025 -0.015432  0.108025      2.000000
 -0.108025 -0.015432  0.108025      2.000000
 -0.077160 -0.015432  0.108025      2.000000
 -0.046296 -0.015432  0.108025      2.000000
 -0.015432 -0.015432  0.108025      2.000000
 


--------------------------------------------------------------------------------------------------------




 Dimension of arrays:
   k-points           NKPTS =    256   k-points in BZ     NKDIM =    256   number of bands    NBANDS=     16
   number of dos      NEDOS =    301   number of ions     NIONS =      4
   non local maximal  LDIM  =      4   non local SUM 2l+1 LMDIM =      8
   total plane-waves  NPLWV =  32768
   max r-space proj   IRMAX =      1   max aug-charges    IRDMAX=  19395
   dimension x,y,z NGX =    32 NGY =   32 NGZ =   32
   dimension x,y,z NGXF=    64 NGYF=   64 NGZF=   64
   support grid    NGXF=    64 NGYF=   64 NGZF=   64
   ions per type =               4
   NGX,Y,Z   is equivalent  to a cutoff of  13.14, 13.14, 13.14 a.u.
   NGXF,Y,Z  is equivalent  to a cutoff of  26.27, 26.27, 26.27 a.u.

 SYSTEM =  Opt                                     
 POSCAR =  Al4                                     

 Startparameter for this run:
   NWRITE =      2    write-flag & timer
   PREC   = accura    normal or accurate (medium, high low for compatibility)
   ISTART =      0    job   : 0-new  1-cont  2-samecut
   ICHARG =      2    charge: 1-file 2-atom 10-const
   ISPIN  =      1    spin polarized calculation?
   LNONCOLLINEAR =      F non collinear calculations
   LSORBIT =      F    spin-orbit coupling
   INIWAV =      1    electr: 0-lowe 1-rand  2-diag
   LASPH  =      F    aspherical Exc in radial PAW
   METAGGA=      F    non-selfconsistent MetaGGA calc.

 Electronic Relaxation 1
   ENCUT  =  600.0 eV  44.10 Ry    6.64 a.u.   8.09  8.09  8.09*2*pi/ulx,y,z
   ENINI  =  600.0     initial cutoff
   ENAUG  =  291.1 eV  augmentation charge cutoff
   NELM   =    100;   NELMIN=  6; NELMDL= -5     # of ELM steps 
   EDIFF  = 0.1E-05   stopping-criterion for ELM
   LREAL  =      F    real-space projection
   NLSPLINE    = F    spline interpolate recip. space projectors
   LCOMPAT=      F    compatible to vasp.4.4
   GGA_COMPAT  = T    GGA compatible to vasp.4.4-vasp.4.6
   LMAXPAW     = -100 max onsite density
   LMAXMIX     =    2 max onsite mixed and CHGCAR
   VOSKOWN=      0    Vosko Wilk Nusair interpolation
   ROPT   =    0.00000
 Ionic relaxation
   EDIFFG = -.1E-01   stopping-criterion for IOM
   NSW    =    200    number of steps for IOM
   NBLOCK =      1;   KBLOCK =    200    inner block; outer block 
   IBRION =      2    ionic relax: 0-MD 1-quasi-New 2-CG
   NFREE  =      1    steps in history (QN), initial steepest desc. (CG)
   ISIF   =      3    stress and relaxation
   IWAVPR =     11    prediction:  0-non 1-charg 2-wave 3-comb
   ISYM   =      0    0-nonsym 1-usesym 2-fastsym
   LCORR  =      T    Harris-Foulkes like correction to forces

   POTIM  = 0.1000    time-step for ionic-motion
   TEIN   =    0.0    initial temperature
   TEBEG  =    0.0;   TEEND  =   0.0 temperature during run
   SMASS  =  -3.00    Nose mass-parameter (am)
   estimated Nose-frequenzy (Omega)   =  0.10E-29 period in steps =****** mass=  -0.375E-27a.u.
   SCALEE = 1.0000    scale energy and forces
   NPACO  =    256;   APACO  = 16.0  distance and # of slots for P.C.
   PSTRESS=    0.0 pullay stress

  Mass of Ions in am
   POMASS =  26.98
  Ionic Valenz
   ZVAL   =   3.00
  Atomic Wigner-Seitz radii
   RWIGS  =  -1.00
  virtual crystal weights 
   VCA    =   1.00
   NELECT =      12.0000    total number of electrons
   NUPDOWN=      -1.0000    fix difference up-down

 DOS related values:
   EMIN   =  10.00;   EMAX   =-10.00  energy-range for DOS
   EFERMI =   0.00
   ISMEAR =     1;   SIGMA  =   0.20  broadening in eV -4-tet -1-fermi 0-gaus

 Electronic relaxation 2 (details)
   IALGO  =     38    algorithm
   LDIAG  =      T    sub-space diagonalisation (order eigenvalues)
   LSUBROT=      F    optimize rotation matrix (better conditioning)
   TURBO    =      0    0=normal 1=particle mesh
   IRESTART =      0    0=no restart 2=restart with 2 vectors
   NREBOOT  =      0    no. of reboots
   NMIN     =      0    reboot dimension
   EREF     =   0.00    reference energy to select bands
   IMIX   =      4    mixing-type and parameters
     AMIX     =   0.40;   BMIX     =  1.00
     AMIX_MAG =   1.60;   BMIX_MAG =  1.00
     AMIN     =   0.10
     WC   =   100.;   INIMIX=   1;  MIXPRE=   1;  MAXMIX= -45

 Intra band minimization:
   WEIMIN = 0.0010     energy-eigenvalue tresh-hold
   EBREAK =  0.16E-07  absolut break condition
   DEPER  =   0.30     relativ break condition  

   TIME   =   0.40     timestep for ELM

  volume/ion in A,a.u.               =      16.61       112.07
  Fermi-wavevector in a.u.,A,eV,Ry     =   0.925437  1.748822 11.652489  0.856434
  Thomas-Fermi vector in A             =   2.051291
 
 Write flags
   LWAVE        =      F    write WAVECAR
   LDOWNSAMPLE  =      F    k-point downsampling of WAVECAR
   LCHARG       =      F    write CHGCAR
   LVTOT        =      F    write LOCPOT, total local potential
   LVHAR        =      F    write LOCPOT, Hartree potential only
   LELF         =      F    write electronic localiz. function (ELF)
   LORBIT       =      0    0 simple, 1 ext, 2 COOP (PROOUT), +10 PAW based schemes


 Dipole corrections
   LMONO  =      F    monopole corrections only (constant potential shift)
   LDIPOL =      F    correct potential (dipole corrections)
   IDIPOL =      0    1-x, 2-y, 3-z, 4-all directions 
   EPSILON=  1.0000000 bulk dielectric constant

 Exchange correlation treatment:
   GGA     =    --    GGA type
   LEXCH   =     7    internal setting for exchange type
   VOSKOWN=      0    Vosko Wilk Nusair interpolation
   LHFCALC =     F    Hartree Fock is set to
   LHFONE  =     F    Hartree Fock one center treatment
   AEXX    =    0.0000 exact exchange contribution

 Linear response parameters
   LEPSILON=     F    determine dielectric tensor
   LRPA    =     F    only Hartree local field effects (RPA)
   LNABLA  =     F    use nabla operator in PAW spheres
   LVEL    =     F    velocity operator in full k-point grid
   LINTERFAST=   F  fast interpolation
   KINTER  =     0    interpolate to denser k-point grid
   CSHIFT  =0.1000    complex shift for real part using Kramers Kronig
   OMEGAMAX=  -1.0    maximum frequency
   DEG_THRESHOLD= 0.2000000E-02 threshold for treating states as degnerate
   RTIME   =   -0.100 relaxation time in fs
  (WPLASMAI=    0.000 imaginary part of plasma frequency in eV, 0.658/RTIME)
   DFIELD  = 0.0000000 0.0000000 0.0000000 field for delta impulse in time
 
 Orbital magnetization related:
   ORBITALMAG=     F  switch on orbital magnetization
   LCHIMAG   =     F  perturbation theory with respect to B field
   DQ        =  0.001000  dq finite difference perturbation B field
   LLRAUG    =     F  two centre corrections for induced B field



--------------------------------------------------------------------------------------------------------


 conjugate gradient relaxation of ions
 charge density and potential will be updated during run
 non-spin polarized calculation
 Variant of blocked Davidson
 Davidson routine will perform the subspace rotation
 perform sub-space diagonalisation
    after iterative eigenvector-optimisation
 modified Broyden-mixing scheme, WC =      100.0
 initial mixing is a Kerker type mixing with AMIX =  0.4000 and BMIX =      1.0000
 Hartree-type preconditioning will be used
 using additional bands           10
 reciprocal scheme for non local part
 use partial core corrections
 calculate Harris-corrections to forces 
   (improved forces if not selfconsistent)
 use gradient corrections 
 use of overlap-Matrix (Vanderbilt PP)
 Methfessel and Paxton  Order N= 1 SIGMA  =   0.20


--------------------------------------------------------------------------------------------------------


  energy-cutoff  :      600.00
  volume of cell :       66.43
      direct lattice vectors                 reciprocal lattice vectors
     4.050000000  0.000000000  0.000000000     0.246913580  0.000000000  0.000000000
     0.000000000  4.050000000  0.000000000     0.000000000  0.246913580  0.000000000
     0.000000000  0.000000000  4.050000000     0.000000000  0.000000000  0.246913580

  length of vectors
     4.050000000  4.050000000  4.050000000     0.246913580  0.246913580  0.246913580


 
 k-points in units of 2pi/SCALE and weight: Automatic kpoint scheme                 
   0.01543210  0.01543210  0.01543210       0.004
   0.04629630  0.01543210  0.01543210       0.004
   0.07716049  0.01543210  0.01543210       0.004
   0.10802469  0.01543210  0.01543210       0.004
  -0.10802469  0.01543210  0.01543210       0.004
  -0.07716049  0.01543210  0.01543210       0.004
  -0.04629630  0.01543210  0.01543210       0.004
  -0.01543210  0.01543210  0.01543210       0.004
   0.01543210  0.04629630  0.01543210       0.004
   0.04629630  0.04629630  0.01543210       0.004
   0.07716049  0.04629630  0.01543210       0.004
   0.10802469  0.04629630  0.01543210       0.004
  -0.10802469  0.04629630  0.01543210       0.004
  -0.07716049  0.04629630  0.01543210       0.004
  -0.04629630  0.04629630  0.01543210       0.004
  -0.01543210  0.04629630  0.01543210       0.004
   0.01543210  0.07716049  0.01543210       0.004
   0.04629630  0.07716049  0.01543210       0.004
   0.07716049  0.07716049  0.01543210       0.004
   0.10802469  0.07716049  0.01543210       0.004
  -0.10802469  0.07716049  0.01543210       0.004
  -0.07716049  0.07716049  0.01543210       0.004
  -0.04629630  0.07716049  0.01543210       0.004
  -0.01543210  0.07716049  0.01543210       0.004
   0.01543210  0.10802469  0.01543210       0.004
   0.04629630  0.10802469  0.01543210       0.004
   0.07716049  0.10802469  0.01543210       0.004
   0.10802469  0.10802469  0.01543210       0.004
  -0.10802469  0.10802469  0.01543210       0.004
  -0.07716049  0.10802469  0.01543210       0.004
  -0.04629630  0.10802469  0.01543210       0.004
  -0.01543210  0.10802469  0.01543210       0.004
   0.01543210 -0.10802469  0.01543210       0.004
   0.04629630 -0.10802469  0.01543210       0.004
   0.07716049 -0.10802469  0.01543210       0.004
   0.10802469 -0.10802469  0.01543210       0.004
  -0.10802469 -0.10802469  0.01543210       0.004
  -0.07716049 -0.10802469  0.01543210       0.004
  -0.04629630 -0.10802469  0.01543210       0.004
  -0.01543210 -0.10802469  0.01543210       0.004
   0.01543210 -0.07716049  0.01543210       0.004
   0.04629630 -0.07716049  0.01543210       0.004
   0.07716049 -0.07716049  0.01543210       0.004
   0.10802469 -0.07716049  0.01543210       0.004
  -0.10802469 -0.07716049  0.01543210       0.004
  -0.07716049 -0.07716049  0.01543210       0.004
  -0.04629630 -0.07716049  0.01543210       0.004
  -0.01543210 -0.07716049  0.01543210       0.004
   0.01543210 -0.04629630  0.01543210       0.004
   0.04629630 -0.04629630  0.01543210       0.004
   0.07716049 -0.04629630  0.01543210       0.004
   0.10802469 -0.04629630  0.01543210       0.004
  -0.10802469 -0.04629630  0.01543210       0.004
  -0.07716049 -0.04629630  0.01543210       0.004
  -0.04629630 -0.04629630  0.01543210       0.004
  -0.01543210 -0.04629630  0.01543210       0.004
   0.01543210 -0.01543210  0.01543210       0.004
   0.04629630 -0.01543210  0.01543210       0.004
   0.07716049 -0.01543210  0.01543210       0.004
   0.10802469 -0.01543210  0.01543210       0.004
  -0.10802469 -0.01543210  0.01543210       0.004
  -0.07716049 -0.01543210  0.01543210       0.004
  -0.04629630 -0.01543210  0.01543210       0.004
  -0.01543210 -0.01543210  0.01543210       0.004
   0.01543210  0.01543210  0.04629630       0.004
   0.04629630  0.01543210  0.04629630       0.004
   0.07716049  0.01543210  0.04629630       0.004
   0.10802469  0.01543210  0.04629630       0.004
  -0.10802469  0.01543210  0.04629630       0.004
  -0.07716049  0.01543210  0.04629630       0.004
  -0.04629630  0.01543210  0.04629630       0.004
  -0.01543210  0.01543210  0.04629630       0.004
   0.01543210  0.04629630  0.04629630       0.004
   0.04629630  0.04629630  0.04629630       0.004
   0.07716049  0.04629630  0.04629630       0.004
   0.10802469  0.04629630  0.04629630       0.004
  -0.10802469  0.04629630  0.04629630       0.004
  -0.07716049  0.04629630  0.04629630       0.004
  -0.04629630  0.04629630  0.04629630       0.004
  -0.01543210  0.04629630  0.04629630       0.004
   0.01543210  0.07716049  0.04629630       0.004
   0.04629630  0.07716049  0.04629630       0.004
   0.07716049  0.07716049  0.04629630       0.004
   0.10802469  0.07716049  0.04629630       0.004
  -0.10802469  0.07716049  0.04629630       0.004
  -0.07716049  0.07716049  0.04629630       0.004
  -0.04629630  0.07716049  0.04629630       0.004
  -0.01543210  0.07716049  0.04629630       0.004
   0.01543210  0.10802469  0.04629630       0.004
   0.04629630  0.10802469  0.04629630       0.004
   0.07716049  0.10802469  0.04629630       0.004
   0.10802469  0.10802469  0.04629630       0.004
  -0.10802469  0.10802469  0.04629630       0.004
  -0.07716049  0.10802469  0.04629630       0.004
  -0.04629630  0.10802469  0.04629630       0.004
  -0.01543210  0.10802469  0.04629630       0.004
   0.01543210 -0.10802469  0.04629630       0.004
   0.04629630 -0.10802469  0.04629630       0.004
   0.07716049 -0.10802469  0.04629630       0.004
   0.10802469 -0.10802469  0.04629630       0.004
  -0.10802469 -0.10802469  0.04629630       0.004
  -0.07716049 -0.10802469  0.04629630       0.004
  -0.04629630 -0.10802469  0.04629630       0.004
  -0.01543210 -0.10802469  0.04629630       0.004
   0.01543210 -0.07716049  0.04629630       0.004
   0.04629630 -0.07716049  0.04629630       0.004
   0.07716049 -0.07716049  0.04629630       0.004
   0.10802469 -0.07716049  0.04629630       0.004
  -0.10802469 -0.07716049  0.04629630       0.004
  -0.07716049 -0.07716049  0.04629630       0.004
  -0.04629630 -0.07716049  0.04629630       0.004
  -0.01543210 -0.07716049  0.04629630       0.004
   0.01543210 -0.04629630  0.04629630       0.004
   0.04629630 -0.04629630  0.04629630       0.004
   0.07716049 -0.04629630  0.04629630       0.004
   0.10802469 -0.04629630  0.04629630       0.004
  -0.10802469 -0.04629630  0.04629630       0.004
  -0.07716049 -0.04629630  0.04629630       0.004
  -0.04629630 -0.04629630  0.04629630       0.004
  -0.01543210 -0.04629630  0.04629630       0.004
   0.01543210 -0.01543210  0.04629630       0.004
   0.04629630 -0.01543210  0.04629630       0.004
   0.07716049 -0.01543210  0.04629630       0.004
   0.10802469 -0.01543210  0.04629630       0.004
  -0.10802469 -0.01543210  0.04629630       0.004
  -0.07716049 -0.01543210  0.04629630       0.004
  -0.04629630 -0.01543210  0.04629630       0.004
  -0.01543210 -0.01543210  0.04629630       0.004
   0.01543210  0.01543210  0.07716049       0.004
   0.04629630  0.01543210  0.07716049       0.004
   0.07716049  0.01543210  0.07716049       0.004
   0.10802469  0.01543210  0.07716049       0.004
  -0.10802469  0.01543210  0.07716049       0.004
  -0.07716049  0.01543210  0.07716049       0.004
  -0.04629630  0.01543210  0.07716049       0.004
  -0.01543210  0.01543210  0.07716049       0.004
   0.01543210  0.04629630  0.07716049       0.004
   0.04629630  0.04629630  0.07716049       0.004
   0.07716049  0.04629630  0.07716049       0.004
   0.10802469  0.04629630  0.07716049       0.004
  -0.10802469  0.04629630  0.07716049       0.004
  -0.07716049  0.04629630  0.07716049       0.004
  -0.04629630  0.04629630  0.07716049       0.004
  -0.01543210  0.04629630  0.07716049       0.004
   0.01543210  0.07716049  0.07716049       0.004
   0.04629630  0.07716049  0.07716049       0.004
   0.07716049  0.07716049  0.07716049       0.004
   0.10802469  0.07716049  0.07716049       0.004
  -0.10802469  0.07716049  0.07716049       0.004
  -0.07716049  0.07716049  0.07716049       0.004
  -0.04629630  0.07716049  0.07716049       0.004
  -0.01543210  0.07716049  0.07716049       0.004
   0.01543210  0.10802469  0.07716049       0.004
   0.04629630  0.10802469  0.07716049       0.004
   0.07716049  0.10802469  0.07716049       0.004
   0.10802469  0.10802469  0.07716049       0.004
  -0.10802469  0.10802469  0.07716049       0.004
  -0.07716049  0.10802469  0.07716049       0.004
  -0.04629630  0.10802469  0.07716049       0.004
  -0.01543210  0.10802469  0.07716049       0.004
   0.01543210 -0.10802469  0.07716049       0.004
   0.04629630 -0.10802469  0.07716049       0.004
   0.07716049 -0.10802469  0.07716049       0.004
   0.10802469 -0.10802469  0.07716049       0.004
  -0.10802469 -0.10802469  0.07716049       0.004
  -0.07716049 -0.10802469  0.07716049       0.004
  -0.04629630 -0.10802469  0.07716049       0.004
  -0.01543210 -0.10802469  0.07716049       0.004
   0.01543210 -0.07716049  0.07716049       0.004
   0.04629630 -0.07716049  0.07716049       0.004
   0.07716049 -0.07716049  0.07716049       0.004
   0.10802469 -0.07716049  0.07716049       0.004
  -0.10802469 -0.07716049  0.07716049       0.004
  -0.07716049 -0.07716049  0.07716049       0.004
  -0.04629630 -0.07716049  0.07716049       0.004
  -0.01543210 -0.07716049  0.07716049       0.004
   0.01543210 -0.04629630  0.07716049       0.004
   0.04629630 -0.04629630  0.07716049       0.004
   0.07716049 -0.04629630  0.07716049       0.004
   0.10802469 -0.04629630  0.07716049       0.004
  -0.10802469 -0.04629630  0.07716049       0.004
  -0.07716049 -0.04629630  0.07716049       0.004
  -0.04629630 -0.04629630  0.07716049       0.004
  -0.01543210 -0.04629630  0.07716049       0.004
   0.01543210 -0.01543210  0.07716049       0.004
   0.04629630 -0.01543210  0.07716049       0.004
   0.07716049 -0.01543210  0.07716049       0.004
   0.10802469 -0.01543210  0.07716049       0.004
  -0.10802469 -0.01543210  0.07716049       0.004
  -0.07716049 -0.01543210  0.07716049       0.004
  -0.04629630 -0.01543210  0.07716049       0.004
  -0.01543210 -0.01543210  0.07716049       0.004
   0.01543210  0.01543210  0.10802469       0.004
   0.04629630  0.01543210  0.10802469       0.004
   0.07716049  0.01543210  0.10802469       0.004
   0.10802469  0.01543210  0.10802469       0.004
  -0.10802469  0.01543210  0.10802469       0.004
  -0.07716049  0.01543210  0.10802469       0.004
  -0.04629630  0.01543210  0.10802469       0.004
  -0.01543210  0.01543210  0.10802469       0.004
   0.01543210  0.04629630  0.10802469       0.004
   0.04629630  0.04629630  0.10802469       0.004
   0.07716049  0.04629630  0.10802469       0.004
   0.10802469  0.04629630  0.10802469       0.004
  -0.10802469  0.04629630  0.10802469       0.004
  -0.07716049  0.04629630  0.10802469       0.004
  -0.04629630  0.04629630  0.10802469       0.004
  -0.01543210  0.04629630  0.10802469       0.004
   0.01543210  0.07716049  0.10802469       0.004
   0.04629630  0.07716049  0.10802469       0.004
   0.07716049  0.07716049  0.10802469       0.004
   0.10802469  0.07716049  0.10802469       0.004
  -0.10802469  0.07716049  0.10802469       0.004
  -0.07716049  0.07716049  0.10802469       0.004
  -0.04629630  0.07716049  0.10802469       0.004
  -0.01543210  0.07716049  0.10802469       0.004
   0.01543210  0.10802469  0.10802469       0.004
   0.04629630  0.10802469  0.10802469       0.004
   0.07716049  0.10802469  0.10802469       0.004
   0.10802469  0.10802469  0.10802469       0.004
  -0.10802469  0.10802469  0.10802469       0.004
  -0.07716049  0.10802469  0.10802469       0.004
  -0.04629630  0.10802469  0.10802469       0.004
  -0.01543210  0.10802469  0.10802469       0.004
   0.01543210 -0.10802469  0.10802469       0.004
   0.04629630 -0.10802469  0.10802469       0.004
   0.07716049 -0.10802469  0.10802469       0.004
   0.10802469 -0.10802469  0.10802469       0.004
  -0.10802469 -0.10802469  0.10802469       0.004
  -0.07716049 -0.10802469  0.10802469       0.004
  -0.04629630 -0.10802469  0.10802469       0.004
  -0.01543210 -0.10802469  0.10802469       0.004
   0.01543210 -0.07716049  0.10802469       0.004
   0.04629630 -0.07716049  0.10802469       0.004
   0.07716049 -0.07716049  0.10802469       0.004
   0.10802469 -0.07716049  0.10802469       0.004
  -0.10802469 -0.07716049  0.10802469       0.004
  -0.07716049 -0.07716049  0.10802469       0.004
  -0.04629630 -0.07716049  0.10802469       0.004
  -0.01543210 -0.07716049  0.10802469       0.004
   0.01543210 -0.04629630  0.10802469       0.004
   0.04629630 -0.04629630  0.10802469       0.004
   0.07716049 -0.04629630  0.10802469       0.004
   0.10802469 -0.04629630  0.10802469       0.004
  -0.10802469 -0.04629630  0.10802469       0.004
  -0.07716049 -0.04629630  0.10802469       0.004
  -0.04629630 -0.04629630  0.10802469       0.004
  -0.01543210 -0.04629630  0.10802469       0.004
   0.01543210 -0.01543210  0.10802469       0.004
   0.04629630 -0.01543210  0.10802469       0.004
   0.07716049 -0.01543210  0.10802469       0.004
   0.10802469 -0.01543210  0.10802469       0.004
  -0.10802469 -0.01543210  0.10802469       0.004
  -0.07716049 -0.01543210  0.10802469       0.004
  -0.04629630 -0.01543210  0.10802469       0.004
  -0.01543210 -0.01543210  0.10802469       0.004
 
 k-points in reciprocal lattice and weights: Automatic kpoint scheme                 
   0.06250000  0.06250000  0.06250000       0.004
   0.18750000  0.06250000  0.06250000       0.004
   0.31250000  0.06250000  0.06250000       0.004
   0.43750000  0.06250000  0.06250000       0.004
  -0.43750000  0.06250000  0.06250000       0.004
  -0.31250000  0.06250000  0.06250000       0.004
  -0.18750000  0.06250000  0.06250000       0.004
  -0.06250000  0.06250000  0.06250000       0.004
   0.06250000  0.18750000  0.06250000       0.004
   0.18750000  0.18750000  0.06250000       0.004
   0.31250000  0.18750000  0.06250000       0.004
   0.43750000  0.18750000  0.06250000       0.004
  -0.43750000  0.18750000  0.06250000       0.004
  -0.31250000  0.18750000  0.06250000       0.004
  -0.18750000  0.18750000  0.06250000       0.004
  -0.06250000  0.18750000  0.06250000       0.004
   0.06250000  0.31250000  0.06250000       0.004
   0.18750000  0.31250000  0.06250000       0.004
   0.31250000  0.31250000  0.06250000       0.004
   0.43750000  0.31250000  0.06250000       0.004
  -0.43750000  0.31250000  0.06250000       0.004
  -0.31250000  0.31250000  0.06250000       0.004
  -0.18750000  0.31250000  0.06250000       0.004
  -0.06250000  0.31250000  0.06250000       0.004
   0.06250000  0.43750000  0.06250000       0.004
   0.18750000  0.43750000  0.06250000       0.004
   0.31250000  0.43750000  0.06250000       0.004
   0.43750000  0.43750000  0.06250000       0.004
  -0.43750000  0.43750000  0.06250000       0.004
  -0.31250000  0.43750000  0.06250000       0.004
  -0.18750000  0.43750000  0.06250000       0.004
  -0.06250000  0.43750000  0.06250000       0.004
   0.06250000 -0.43750000  0.06250000       0.004
   0.18750000 -0.43750000  0.06250000       0.004
   0.31250000 -0.43750000  0.06250000       0.004
   0.43750000 -0.43750000  0.06250000       0.004
  -0.43750000 -0.43750000  0.06250000       0.004
  -0.31250000 -0.43750000  0.06250000       0.004
  -0.18750000 -0.43750000  0.06250000       0.004
  -0.06250000 -0.43750000  0.06250000       0.004
   0.06250000 -0.31250000  0.06250000       0.004
   0.18750000 -0.31250000  0.06250000       0.004
   0.31250000 -0.31250000  0.06250000       0.004
   0.43750000 -0.31250000  0.06250000       0.004
  -0.43750000 -0.31250000  0.06250000       0.004
  -0.31250000 -0.31250000  0.06250000       0.004
  -0.18750000 -0.31250000  0.06250000       0.004
  -0.06250000 -0.31250000  0.06250000       0.004
   0.06250000 -0.18750000  0.06250000       0.004
   0.18750000 -0.18750000  0.06250000       0.004
   0.31250000 -0.18750000  0.06250000       0.004
   0.43750000 -0.18750000  0.06250000       0.004
  -0.43750000 -0.18750000  0.06250000       0.004
  -0.31250000 -0.18750000  0.06250000       0.004
  -0.18750000 -0.18750000  0.06250000       0.004
  -0.06250000 -0.18750000  0.06250000       0.004
   0.06250000 -0.06250000  0.06250000       0.004
   0.18750000 -0.06250000  0.06250000       0.004
   0.31250000 -0.06250000  0.06250000       0.004
   0.43750000 -0.06250000  0.06250000       0.004
  -0.43750000 -0.06250000  0.06250000       0.004
  -0.31250000 -0.06250000  0.06250000       0.004
  -0.18750000 -0.06250000  0.06250000       0.004
  -0.06250000 -0.06250000  0.06250000       0.004
   0.06250000  0.06250000  0.18750000       0.004
   0.18750000  0.06250000  0.18750000       0.004
   0.31250000  0.06250000  0.18750000       0.004
   0.43750000  0.06250000  0.18750000       0.004
  -0.43750000  0.06250000  0.18750000       0.004
  -0.31250000  0.06250000  0.18750000       0.004
  -0.18750000  0.06250000  0.18750000       0.004
  -0.06250000  0.06250000  0.18750000       0.004
   0.06250000  0.18750000  0.18750000       0.004
   0.18750000  0.18750000  0.18750000       0.004
   0.31250000  0.18750000  0.18750000       0.004
   0.43750000  0.18750000  0.18750000       0.004
  -0.43750000  0.18750000  0.18750000       0.004
  -0.31250000  0.18750000  0.18750000       0.004
  -0.18750000  0.18750000  0.18750000       0.004
  -0.06250000  0.18750000  0.18750000       0.004
   0.06250000  0.31250000  0.18750000       0.004
   0.18750000  0.31250000  0.18750000       0.004
   0.31250000  0.31250000  0.18750000       0.004
   0.43750000  0.31250000  0.18750000       0.004
  -0.43750000  0.31250000  0.18750000       0.004
  -0.31250000  0.31250000  0.18750000       0.004
  -0.18750000  0.31250000  0.18750000       0.004
  -0.06250000  0.31250000  0.18750000       0.004
   0.06250000  0.43750000  0.18750000       0.004
   0.18750000  0.43750000  0.18750000       0.004
   0.31250000  0.43750000  0.18750000       0.004
   0.43750000  0.43750000  0.18750000       0.004
  -0.43750000  0.43750000  0.18750000       0.004
  -0.31250000  0.43750000  0.18750000       0.004
  -0.18750000  0.43750000  0.18750000       0.004
  -0.06250000  0.43750000  0.18750000       0.004
   0.06250000 -0.43750000  0.18750000       0.004
   0.18750000 -0.43750000  0.18750000       0.004
   0.31250000 -0.43750000  0.18750000       0.004
   0.43750000 -0.43750000  0.18750000       0.004
  -0.43750000 -0.43750000  0.18750000       0.004
  -0.31250000 -0.43750000  0.18750000       0.004
  -0.18750000 -0.43750000  0.18750000       0.004
  -0.06250000 -0.43750000  0.18750000       0.004
   0.06250000 -0.31250000  0.18750000       0.004
   0.18750000 -0.31250000  0.18750000       0.004
   0.31250000 -0.31250000  0.18750000       0.004
   0.43750000 -0.31250000  0.18750000       0.004
  -0.43750000 -0.31250000  0.18750000       0.004
  -0.31250000 -0.31250000  0.18750000       0.004
  -0.18750000 -0.31250000  0.18750000       0.004
  -0.06250000 -0.31250000  0.18750000       0.004
   0.06250000 -0.18750000  0.18750000       0.004
   0.18750000 -0.18750000  0.18750000       0.004
   0.31250000 -0.18750000  0.18750000       0.004
   0.43750000 -0.18750000  0.18750000       0.004
  -0.43750000 -0.18750000  0.18750000       0.004
  -0.31250000 -0.18750000  0.18750000       0.004
  -0.18750000 -0.18750000  0.18750000       0.004
  -0.06250000 -0.18750000  0.18750000       0.004
   0.06250000 -0.06250000  0.18750000       0.004
   0.18750000 -0.06250000  0.18750000       0.004
   0.31250000 -0.06250000  0.18750000       0.004
   0.43750000 -0.06250000  0.18750000       0.004
  -0.43750000 -0.06250000  0.18750000       0.004
  -0.31250000 -0.06250000  0.18750000       0.004
  -0.18750000 -0.06250000  0.18750000       0.004
  -0.06250000 -0.06250000  0.18750000       0.004
   0.06250000  0.06250000  0.31250000       0.004
   0.18750000  0.06250000  0.31250000       0.004
   0.31250000  0.06250000  0.31250000       0.004
   0.43750000  0.06250000  0.31250000       0.004
  -0.43750000  0.06250000  0.31250000       0.004
  -0.31250000  0.06250000  0.31250000       0.004
  -0.18750000  0.06250000  0.31250000       0.004
  -0.06250000  0.06250000  0.31250000       0.004
   0.06250000  0.18750000  0.31250000       0.004
   0.18750000  0.18750000  0.31250000       0.004
   0.31250000  0.18750000  0.31250000       0.004
   0.43750000  0.18750000  0.31250000       0.004
  -0.43750000  0.18750000  0.31250000       0.004
  -0.31250000  0.18750000  0.31250000       0.004
  -0.18750000  0.18750000  0.31250000       0.004
  -0.06250000  0.18750000  0.31250000       0.004
   0.06250000  0.31250000  0.31250000       0.004
   0.18750000  0.31250000  0.31250000       0.004
   0.31250000  0.31250000  0.31250000       0.004
   0.43750000  0.31250000  0.31250000       0.004
  -0.43750000  0.31250000  0.31250000       0.004
  -0.31250000  0.31250000  0.31250000       0.004
  -0.18750000  0.31250000  0.31250000       0.004
  -0.06250000  0.31250000  0.31250000       0.004
   0.06250000  0.43750000  0.31250000       0.004
   0.18750000  0.43750000  0.31250000       0.004
   0.31250000  0.43750000  0.31250000       0.004
   0.43750000  0.43750000  0.31250000       0.004
  -0.43750000  0.43750000  0.31250000       0.004
  -0.31250000  0.43750000  0.31250000       0.004
  -0.18750000  0.43750000  0.31250000       0.004
  -0.06250000  0.43750000  0.31250000       0.004
   0.06250000 -0.43750000  0.31250000       0.004
   0.18750000 -0.43750000  0.31250000       0.004
   0.31250000 -0.43750000  0.31250000       0.004
   0.43750000 -0.43750000  0.31250000       0.004
  -0.43750000 -0.43750000  0.31250000       0.004
  -0.31250000 -0.43750000  0.31250000       0.004
  -0.18750000 -0.43750000  0.31250000       0.004
  -0.06250000 -0.43750000  0.31250000       0.004
   0.06250000 -0.31250000  0.31250000       0.004
   0.18750000 -0.31250000  0.31250000       0.004
   0.31250000 -0.31250000  0.31250000       0.004
   0.43750000 -0.31250000  0.31250000       0.004
  -0.43750000 -0.31250000  0.31250000       0.004
  -0.31250000 -0.31250000  0.31250000       0.004
  -0.18750000 -0.31250000  0.31250000       0.004
  -0.06250000 -0.31250000  0.31250000       0.004
   0.06250000 -0.18750000  0.31250000       0.004
   0.18750000 -0.18750000  0.31250000       0.004
   0.31250000 -0.18750000  0.31250000       0.004
   0.43750000 -0.18750000  0.31250000       0.004
  -0.43750000 -0.18750000  0.31250000       0.004
  -0.31250000 -0.18750000  0.31250000       0.004
  -0.18750000 -0.18750000  0.31250000       0.004
  -0.06250000 -0.18750000  0.31250000       0.004
   0.06250000 -0.06250000  0.31250000       0.004
   0.18750000 -0.06250000  0.31250000       0.004
   0.31250000 -0.06250000  0.31250000       0.004
   0.43750000 -0.06250000  0.31250000       0.004
  -0.43750000 -0.06250000  0.31250000       0.004
  -0.31250000 -0.06250000  0.31250000       0.004
  -0.18750000 -0.06250000  0.31250000       0.004
  -0.06250000 -0.06250000  0.31250000       0.004
   0.06250000  0.06250000  0.43750000       0.004
   0.18750000  0.06250000  0.43750000       0.004
   0.31250000  0.06250000  0.43750000       0.004
   0.43750000  0.06250000  0.43750000       0.004
  -0.43750000  0.06250000  0.43750000       0.004
  -0.31250000  0.06250000  0.43750000       0.004
  -0.18750000  0.06250000  0.43750000       0.004
  -0.06250000  0.06250000  0.43750000       0.004
   0.06250000  0.18750000  0.43750000       0.004
   0.18750000  0.18750000  0.43750000       0.004
   0.31250000  0.18750000  0.43750000       0.004
   0.43750000  0.18750000  0.43750000       0.004
  -0.43750000  0.18750000  0.43750000       0.004
  -0.31250000  0.18750000  0.43750000       0.004
  -0.18750000  0.18750000  0.43750000       0.004
  -0.06250000  0.18750000  0.43750000       0.004
   0.06250000  0.31250000  0.43750000       0.004
   0.18750000  0.31250000  0.43750000       0.004
   0.31250000  0.31250000  0.43750000       0.004
   0.43750000  0.31250000  0.43750000       0.004
  -0.43750000  0.31250000  0.43750000       0.004
  -0.31250000  0.31250000  0.43750000       0.004
  -0.18750000  0.31250000  0.43750000       0.004
  -0.06250000  0.31250000  0.43750000       0.004
   0.06250000  0.43750000  0.43750000       0.004
   0.18750000  0.43750000  0.43750000       0.004
   0.31250000  0.43750000  0.43750000       0.004
   0.43750000  0.43750000  0.43750000       0.004
  -0.43750000  0.43750000  0.43750000       0.004
  -0.31250000  0.43750000  0.43750000       0.004
  -0.18750000  0.43750000  0.43750000       0.004
  -0.06250000  0.43750000  0.43750000       0.004
   0.06250000 -0.43750000  0.43750000       0.004
   0.18750000 -0.43750000  0.43750000       0.004
   0.31250000 -0.43750000  0.43750000       0.004
   0.43750000 -0.43750000  0.43750000       0.004
  -0.43750000 -0.43750000  0.43750000       0.004
  -0.31250000 -0.43750000  0.43750000       0.004
  -0.18750000 -0.43750000  0.43750000       0.004
  -0.06250000 -0.43750000  0.43750000       0.004
   0.06250000 -0.31250000  0.43750000       0.004
   0.18750000 -0.31250000  0.43750000       0.004
   0.31250000 -0.31250000  0.43750000       0.004
   0.43750000 -0.31250000  0.43750000       0.004
  -0.43750000 -0.31250000  0.43750000       0.004
  -0.31250000 -0.31250000  0.43750000       0.004
  -0.18750000 -0.31250000  0.43750000       0.004
  -0.06250000 -0.31250000  0.43750000       0.004
   0.06250000 -0.18750000  0.43750000       0.004
   0.18750000 -0.18750000  0.43750000       0.004
   0.31250000 -0.18750000  0.43750000       0.004
   0.43750000 -0.18750000  0.43750000       0.004
  -0.43750000 -0.18750000  0.43750000       0.004
  -0.31250000 -0.18750000  0.43750000       0.004
  -0.18750000 -0.18750000  0.43750000       0.004
  -0.06250000 -0.18750000  0.43750000       0.004
   0.06250000 -0.06250000  0.43750000       0.004
   0.18750000 -0.06250000  0.43750000       0.004
   0.31250000 -0.06250000  0.43750000       0.004
   0.43750000 -0.06250000  0.43750000       0.004
  -0.43750000 -0.06250000  0.43750000       0.004
  -0.31250000 -0.06250000  0.43750000       0.004
  -0.18750000 -0.06250000  0.43750000       0.004
  -0.06250000 -0.06250000  0.43750000       0.004
 
 position of ions in fractional coordinates (direct lattice) 
   0.00000000  0.00000000  0.00000000
   0.00000000  0.50000000  0.50000000
   0.50000000  0.00000000  0.50000000
   0.50000000  0.50000000  0.00000000
 
 position of ions in cartesian coordinates  (Angst):
   0.00000000  0.00000000  0.00000000
   0.00000000  2.02500000  2.02500000
   2.02500000  0.00000000  2.02500000
   2.02500000  2.02500000  0.00000000
 


--------------------------------------------------------------------------------------------------------


 k-point  1 :   0.0625 0.0625 0.0625  plane waves:    2208
 k-point  2 :   0.1875 0.0625 0.0625  plane waves:    2214
 k-point  3 :   0.3125 0.0625 0.0625  plane waves:    2216
 k-point  4 :   0.4375 0.0625 0.0625  plane waves:    2205
 k-point  5 :  -0.4375 0.0625 0.0625  plane waves:    2205
 k-point  6 :  -0.3125 0.0625 0.0625  plane waves:    2216
 k-point  7 :  -0.1875 0.0625 0.0625  plane waves:    2214
 k-point  8 :  -0.0625 0.0625 0.0625  plane waves:    2208
 k-point  9 :   0.0625 0.1875 0.0625  plane waves:    2214
 k-point 10 :   0.1875 0.1875 0.0625  plane waves:    2214
 k-point 11 :   0.3125 0.1875 0.0625  plane waves:    2217
 k-point 12 :   0.4375 0.1875 0.0625  plane waves:    2211
 k-point 13 :  -0.4375 0.1875 0.0625  plane waves:    2211
 k-point 14 :  -0.3125 0.1875 0.0625  plane waves:    2217
 k-point 15 :  -0.1875 0.1875 0.0625  plane waves:    2214
 k-point 16 :  -0.0625 0.1875 0.0625  plane waves:    2214
 k-point 17 :   0.0625 0.3125 0.0625  plane waves:    2216
 k-point 18 :   0.1875 0.3125 0.0625  plane waves:    2217
 k-point 19 :   0.3125 0.3125 0.0625  plane waves:    2214
 k-point 20 :   0.4375 0.3125 0.0625  plane waves:    2213
 k-point 21 :  -0.4375 0.3125 0.0625  plane waves:    2213
 k-point 22 :  -0.3125 0.3125 0.0625  plane waves:    2214
 k-point 23 :  -0.1875 0.3125 0.0625  plane waves:    2217
 k-point 24 :  -0.0625 0.3125 0.0625  plane waves:    2216
 k-point 25 :   0.0625 0.4375 0.0625  plane waves:    2205
 k-point 26 :   0.1875 0.4375 0.0625  plane waves:    2211
 k-point 27 :   0.3125 0.4375 0.0625  plane waves:    2213
 k-point 28 :   0.4375 0.4375 0.0625  plane waves:    2211
 k-point 29 :  -0.4375 0.4375 0.0625  plane waves:    2211
 k-point 30 :  -0.3125 0.4375 0.0625  plane waves:    2213
 k-point 31 :  -0.1875 0.4375 0.0625  plane waves:    2211
 k-point 32 :  -0.0625 0.4375 0.0625  plane waves:    2205
 k-point 33 :   0.0625-0.4375 0.0625  plane waves:    2205
 k-point 34 :   0.1875-0.4375 0.0625  plane waves:    2211
 k-point 35 :   0.3125-0.4375 0.0625  plane waves:    2213
 k-point 36 :   0.4375-0.4375 0.0625  plane waves:    2211
 k-point 37 :  -0.4375-0.4375 0.0625  plane waves:    2211
 k-point 38 :  -0.3125-0.4375 0.0625  plane waves:    2213
 k-point 39 :  -0.1875-0.4375 0.0625  plane waves:    2211
 k-point 40 :  -0.0625-0.4375 0.0625  plane waves:    2205
 k-point 41 :   0.0625-0.3125 0.0625  plane waves:    2216
 k-point 42 :   0.1875-0.3125 0.0625  plane waves:    2217
 k-point 43 :   0.3125-0.3125 0.0625  plane waves:    2214
 k-point 44 :   0.4375-0.3125 0.0625  plane waves:    2213
 k-point 45 :  -0.4375-0.3125 0.0625  plane waves:    2213
 k-point 46 :  -0.3125-0.3125 0.0625  plane waves:    2214
 k-point 47 :  -0.1875-0.3125 0.0625  plane waves:    2217
 k-point 48 :  -0.0625-0.3125 0.0625  plane waves:    2216
 k-point 49 :   0.0625-0.1875 0.0625  plane waves:    2214
 k-point 50 :   0.1875-0.1875 0.0625  plane waves:    2214
 k-point 51 :   0.3125-0.1875 0.0625  plane waves:    2217
 k-point 52 :   0.4375-0.1875 0.0625  plane waves:    2211
 k-point 53 :  -0.4375-0.1875 0.0625  plane waves:    2211
 k-point 54 :  -0.3125-0.1875 0.0625  plane waves:    2217
 k-point 55 :  -0.1875-0.1875 0.0625  plane waves:    2214
 k-point 56 :  -0.0625-0.1875 0.0625  plane waves:    2214
 k-point 57 :   0.0625-0.0625 0.0625  plane waves:    2208
 k-point 58 :   0.1875-0.0625 0.0625  plane waves:    2214
 k-point 59 :   0.3125-0.0625 0.0625  plane waves:    2216
 k-point 60 :   0.4375-0.0625 0.0625  plane waves:    2205
 k-point 61 :  -0.4375-0.0625 0.0625  plane waves:    2205
 k-point 62 :  -0.3125-0.0625 0.0625  plane waves:    2216
 k-point 63 :  -0.1875-0.0625 0.0625  plane waves:    2214
 k-point 64 :  -0.0625-0.0625 0.0625  plane waves:    2208
 k-point 65 :   0.0625 0.0625 0.1875  plane waves:    2214
 k-point 66 :   0.1875 0.0625 0.1875  plane waves:    2214
 k-point 67 :   0.3125 0.0625 0.1875  plane waves:    2217
 k-point 68 :   0.4375 0.0625 0.1875  plane waves:    2211
 k-point 69 :  -0.4375 0.0625 0.1875  plane waves:    2211
 k-point 70 :  -0.3125 0.0625 0.1875  plane waves:    2217
 k-point 71 :  -0.1875 0.0625 0.1875  plane waves:    2214
 k-point 72 :  -0.0625 0.0625 0.1875  plane waves:    2214
 k-point 73 :   0.0625 0.1875 0.1875  plane waves:    2214
 k-point 74 :   0.1875 0.1875 0.1875  plane waves:    2214
 k-point 75 :   0.3125 0.1875 0.1875  plane waves:    2219
 k-point 76 :   0.4375 0.1875 0.1875  plane waves:    2212
 k-point 77 :  -0.4375 0.1875 0.1875  plane waves:    2212
 k-point 78 :  -0.3125 0.1875 0.1875  plane waves:    2219
 k-point 79 :  -0.1875 0.1875 0.1875  plane waves:    2214
 k-point 80 :  -0.0625 0.1875 0.1875  plane waves:    2214
 k-point 81 :   0.0625 0.3125 0.1875  plane waves:    2217
 k-point 82 :   0.1875 0.3125 0.1875  plane waves:    2219
 k-point 83 :   0.3125 0.3125 0.1875  plane waves:    2219
 k-point 84 :   0.4375 0.3125 0.1875  plane waves:    2217
 k-point 85 :  -0.4375 0.3125 0.1875  plane waves:    2217
 k-point 86 :  -0.3125 0.3125 0.1875  plane waves:    2219
 k-point 87 :  -0.1875 0.3125 0.1875  plane waves:    2219
 k-point 88 :  -0.0625 0.3125 0.1875  plane waves:    2217
 k-point 89 :   0.0625 0.4375 0.1875  plane waves:    2211
 k-point 90 :   0.1875 0.4375 0.1875  plane waves:    2212
 k-point 91 :   0.3125 0.4375 0.1875  plane waves:    2217
 k-point 92 :   0.4375 0.4375 0.1875  plane waves:    2230
 k-point 93 :  -0.4375 0.4375 0.1875  plane waves:    2230
 k-point 94 :  -0.3125 0.4375 0.1875  plane waves:    2217
 k-point 95 :  -0.1875 0.4375 0.1875  plane waves:    2212
 k-point 96 :  -0.0625 0.4375 0.1875  plane waves:    2211
 k-point 97 :   0.0625-0.4375 0.1875  plane waves:    2211
 k-point 98 :   0.1875-0.4375 0.1875  plane waves:    2212
 k-point 99 :   0.3125-0.4375 0.1875  plane waves:    2217
 k-point ** :   0.4375-0.4375 0.1875  plane waves:    2230
 k-point ** :  -0.4375-0.4375 0.1875  plane waves:    2230
 k-point ** :  -0.3125-0.4375 0.1875  plane waves:    2217
 k-point ** :  -0.1875-0.4375 0.1875  plane waves:    2212
 k-point ** :  -0.0625-0.4375 0.1875  plane waves:    2211
 k-point ** :   0.0625-0.3125 0.1875  plane waves:    2217
 k-point ** :   0.1875-0.3125 0.1875  plane waves:    2219
 k-point ** :   0.3125-0.3125 0.1875  plane waves:    2219
 k-point ** :   0.4375-0.3125 0.1875  plane waves:    2217
 k-point ** :  -0.4375-0.3125 0.1875  plane waves:    2217
 k-point ** :  -0.3125-0.3125 0.1875  plane waves:    2219
 k-point ** :  -0.1875-0.3125 0.1875  plane waves:    2219
 k-point ** :  -0.0625-0.3125 0.1875  plane waves:    2217
 k-point ** :   0.0625-0.1875 0.1875  plane waves:    2214
 k-point ** :   0.1875-0.1875 0.1875  plane waves:    2214
 k-point ** :   0.3125-0.1875 0.1875  plane waves:    2219
 k-point ** :   0.4375-0.1875 0.1875  plane waves:    2212
 k-point ** :  -0.4375-0.1875 0.1875  plane waves:    2212
 k-point ** :  -0.3125-0.1875 0.1875  plane waves:    2219
 k-point ** :  -0.1875-0.1875 0.1875  plane waves:    2214
 k-point ** :  -0.0625-0.1875 0.1875  plane waves:    2214
 k-point ** :   0.0625-0.0625 0.1875  plane waves:    2214
 k-point ** :   0.1875-0.0625 0.1875  plane waves:    2214
 k-point ** :   0.3125-0.0625 0.1875  plane waves:    2217
 k-point ** :   0.4375-0.0625 0.1875  plane waves:    2211
 k-point ** :  -0.4375-0.0625 0.1875  plane waves:    2211
 k-point ** :  -0.3125-0.0625 0.1875  plane waves:    2217
 k-point ** :  -0.1875-0.0625 0.1875  plane waves:    2214
 k-point ** :  -0.0625-0.0625 0.1875  plane waves:    2214
 k-point ** :   0.0625 0.0625 0.3125  plane waves:    2216
 k-point ** :   0.1875 0.0625 0.3125  plane waves:    2217
 k-point ** :   0.3125 0.0625 0.3125  plane waves:    2214
 k-point ** :   0.4375 0.0625 0.3125  plane waves:    2213
 k-point ** :  -0.4375 0.0625 0.3125  plane waves:    2213
 k-point ** :  -0.3125 0.0625 0.3125  plane waves:    2214
 k-point ** :  -0.1875 0.0625 0.3125  plane waves:    2217
 k-point ** :  -0.0625 0.0625 0.3125  plane waves:    2216
 k-point ** :   0.0625 0.1875 0.3125  plane waves:    2217
 k-point ** :   0.1875 0.1875 0.3125  plane waves:    2219
 k-point ** :   0.3125 0.1875 0.3125  plane waves:    2219
 k-point ** :   0.4375 0.1875 0.3125  plane waves:    2217
 k-point ** :  -0.4375 0.1875 0.3125  plane waves:    2217
 k-point ** :  -0.3125 0.1875 0.3125  plane waves:    2219
 k-point ** :  -0.1875 0.1875 0.3125  plane waves:    2219
 k-point ** :  -0.0625 0.1875 0.3125  plane waves:    2217
 k-point ** :   0.0625 0.3125 0.3125  plane waves:    2214
 k-point ** :   0.1875 0.3125 0.3125  plane waves:    2219
 k-point ** :   0.3125 0.3125 0.3125  plane waves:    2226
 k-point ** :   0.4375 0.3125 0.3125  plane waves:    2232
 k-point ** :  -0.4375 0.3125 0.3125  plane waves:    2232
 k-point ** :  -0.3125 0.3125 0.3125  plane waves:    2226
 k-point ** :  -0.1875 0.3125 0.3125  plane waves:    2219
 k-point ** :  -0.0625 0.3125 0.3125  plane waves:    2214
 k-point ** :   0.0625 0.4375 0.3125  plane waves:    2213
 k-point ** :   0.1875 0.4375 0.3125  plane waves:    2217
 k-point ** :   0.3125 0.4375 0.3125  plane waves:    2232
 k-point ** :   0.4375 0.4375 0.3125  plane waves:    2234
 k-point ** :  -0.4375 0.4375 0.3125  plane waves:    2234
 k-point ** :  -0.3125 0.4375 0.3125  plane waves:    2232
 k-point ** :  -0.1875 0.4375 0.3125  plane waves:    2217
 k-point ** :  -0.0625 0.4375 0.3125  plane waves:    2213
 k-point ** :   0.0625-0.4375 0.3125  plane waves:    2213
 k-point ** :   0.1875-0.4375 0.3125  plane waves:    2217
 k-point ** :   0.3125-0.4375 0.3125  plane waves:    2232
 k-point ** :   0.4375-0.4375 0.3125  plane waves:    2234
 k-point ** :  -0.4375-0.4375 0.3125  plane waves:    2234
 k-point ** :  -0.3125-0.4375 0.3125  plane waves:    2232
 k-point ** :  -0.1875-0.4375 0.3125  plane waves:    2217
 k-point ** :  -0.0625-0.4375 0.3125  plane waves:    2213
 k-point ** :   0.0625-0.3125 0.3125  plane waves:    2214
 k-point ** :   0.1875-0.3125 0.3125  plane waves:    2219
 k-point ** :   0.3125-0.3125 0.3125  plane waves:    2226
 k-point ** :   0.4375-0.3125 0.3125  plane waves:    2232
 k-point ** :  -0.4375-0.3125 0.3125  plane waves:    2232
 k-point ** :  -0.3125-0.3125 0.3125  plane waves:    2226
 k-point ** :  -0.1875-0.3125 0.3125  plane waves:    2219
 k-point ** :  -0.0625-0.3125 0.3125  plane waves:    2214
 k-point ** :   0.0625-0.1875 0.3125  plane waves:    2217
 k-point ** :   0.1875-0.1875 0.3125  plane waves:    2219
 k-point ** :   0.3125-0.1875 0.3125  plane waves:    2219
 k-point ** :   0.4375-0.1875 0.3125  plane waves:    2217
 k-point ** :  -0.4375-0.1875 0.3125  plane waves:    2217
 k-point ** :  -0.3125-0.1875 0.3125  plane waves:    2219
 k-point ** :  -0.1875-0.1875 0.3125  plane waves:    2219
 k-point ** :  -0.0625-0.1875 0.3125  plane waves:    2217
 k-point ** :   0.0625-0.0625 0.3125  plane waves:    2216
 k-point ** :   0.1875-0.0625 0.3125  plane waves:    2217
 k-point ** :   0.3125-0.0625 0.3125  plane waves:    2214
 k-point ** :   0.4375-0.0625 0.3125  plane waves:    2213
 k-point ** :  -0.4375-0.0625 0.3125  plane waves:    2213
 k-point ** :  -0.3125-0.0625 0.3125  plane waves:    2214
 k-point ** :  -0.1875-0.0625 0.3125  plane waves:    2217
 k-point ** :  -0.0625-0.0625 0.3125  plane waves:    2216
 k-point ** :   0.0625 0.0625 0.4375  plane waves:    2205
 k-point ** :   0.1875 0.0625 0.4375  plane waves:    2211
 k-point ** :   0.3125 0.0625 0.4375  plane waves:    2213
 k-point ** :   0.4375 0.0625 0.4375  plane waves:    2211
 k-point ** :  -0.4375 0.0625 0.4375  plane waves:    2211
 k-point ** :  -0.3125 0.0625 0.4375  plane waves:    2213
 k-point ** :  -0.1875 0.0625 0.4375  plane waves:    2211
 k-point ** :  -0.0625 0.0625 0.4375  plane waves:    2205
 k-point ** :   0.0625 0.1875 0.4375  plane waves:    2211
 k-point ** :   0.1875 0.1875 0.4375  plane waves:    2212
 k-point ** :   0.3125 0.1875 0.4375  plane waves:    2217
 k-point ** :   0.4375 0.1875 0.4375  plane waves:    2230
 k-point ** :  -0.4375 0.1875 0.4375  plane waves:    2230
 k-point ** :  -0.3125 0.1875 0.4375  plane waves:    2217
 k-point ** :  -0.1875 0.1875 0.4375  plane waves:    2212
 k-point ** :  -0.0625 0.1875 0.4375  plane waves:    2211
 k-point ** :   0.0625 0.3125 0.4375  plane waves:    2213
 k-point ** :   0.1875 0.3125 0.4375  plane waves:    2217
 k-point ** :   0.3125 0.3125 0.4375  plane waves:    2232
 k-point ** :   0.4375 0.3125 0.4375  plane waves:    2234
 k-point ** :  -0.4375 0.3125 0.4375  plane waves:    2234
 k-point ** :  -0.3125 0.3125 0.4375  plane waves:    2232
 k-point ** :  -0.1875 0.3125 0.4375  plane waves:    2217
 k-point ** :  -0.0625 0.3125 0.4375  plane waves:    2213
 k-point ** :   0.0625 0.4375 0.4375  plane waves:    2211
 k-point ** :   0.1875 0.4375 0.4375  plane waves:    2230
 k-point ** :   0.3125 0.4375 0.4375  plane waves:    2234
 k-point ** :   0.4375 0.4375 0.4375  plane waves:    2248
 k-point ** :  -0.4375 0.4375 0.4375  plane waves:    2248
 k-point ** :  -0.3125 0.4375 0.4375  plane waves:    2234
 k-point ** :  -0.1875 0.4375 0.4375  plane waves:    2230
 k-point ** :  -0.0625 0.4375 0.4375  plane waves:    2211
 k-point ** :   0.0625-0.4375 0.4375  plane waves:    2211
 k-point ** :   0.1875-0.4375 0.4375  plane waves:    2230
 k-point ** :   0.3125-0.4375 0.4375  plane waves:    2234
 k-point ** :   0.4375-0.4375 0.4375  plane waves:    2248
 k-point ** :  -0.4375-0.4375 0.4375  plane waves:    2248
 k-point ** :  -0.3125-0.4375 0.4375  plane waves:    2234
 k-point ** :  -0.1875-0.4375 0.4375  plane waves:    2230
 k-point ** :  -0.0625-0.4375 0.4375  plane waves:    2211
 k-point ** :   0.0625-0.3125 0.4375  plane waves:    2213
 k-point ** :   0.1875-0.3125 0.4375  plane waves:    2217
 k-point ** :   0.3125-0.3125 0.4375  plane waves:    2232
 k-point ** :   0.4375-0.3125 0.4375  plane waves:    2234
 k-point ** :  -0.4375-0.3125 0.4375  plane waves:    2234
 k-point ** :  -0.3125-0.3125 0.4375  plane waves:    2232
 k-point ** :  -0.1875-0.3125 0.4375  plane waves:    2217
 k-point ** :  -0.0625-0.3125 0.4375  plane waves:    2213
 k-point ** :   0.0625-0.1875 0.4375  plane waves:    2211
 k-point ** :   0.1875-0.1875 0.4375  plane waves:    2212
 k-point ** :   0.3125-0.1875 0.4375  plane waves:    2217
 k-point ** :   0.4375-0.1875 0.4375  plane waves:    2230
 k-point ** :  -0.4375-0.1875 0.4375  plane waves:    2230
 k-point ** :  -0.3125-0.1875 0.4375  plane waves:    2217
 k-point ** :  -0.1875-0.1875 0.4375  plane waves:    2212
 k-point ** :  -0.0625-0.1875 0.4375  plane waves:    2211
 k-point ** :   0.0625-0.0625 0.4375  plane waves:    2205
 k-point ** :   0.1875-0.0625 0.4375  plane waves:    2211
 k-point ** :   0.3125-0.0625 0.4375  plane waves:    2213
 k-point ** :   0.4375-0.0625 0.4375  plane waves:    2211
 k-point ** :  -0.4375-0.0625 0.4375  plane waves:    2211
 k-point ** :  -0.3125-0.0625 0.4375  plane waves:    2213
 k-point ** :  -0.1875-0.0625 0.4375  plane waves:    2211
 k-point ** :  -0.0625-0.0625 0.4375  plane waves:    2205

 maximum and minimum number of plane-waves per node :      1131     1092

 maximum number of plane-waves:      2248
 maximum index in each direction: 
   IXMAX=    8   IYMAX=    8   IZMAX=    8
   IXMIN=   -8   IYMIN=   -8   IZMIN=   -8


 parallel 3D FFT for wavefunctions:
    minimum data exchange during FFTs selected (reduces bandwidth)
 parallel 3D FFT for charge:
    minimum data exchange during FFTs selected (reduces bandwidth)


 total amount of memory used by VASP MPI-rank0    60451. kBytes
=======================================================================

   base      :      30000. kBytes
   nonl-proj :      18553. kBytes
   fftplans  :       1055. kBytes
   grid      :       1466. kBytes
   one-center:          6. kBytes
   wavefun   :       9371. kBytes
 
     INWAV:  cpu time    0.0000: real time    0.0000
 Broyden mixing: mesh for mixing (old mesh)
   NGX = 17   NGY = 17   NGZ = 17
  (NGX  = 64   NGY  = 64   NGZ  = 64)
  gives a total of   4913 points

 initial charge density was supplied:
 charge density of overlapping atoms calculated
 number of electron      12.0000000 magnetization 
 keeping initial charge density in first step


--------------------------------------------------------------------------------------------------------


 Maximum index for augmentation-charges          943 (set IRDMAX)


--------------------------------------------------------------------------------------------------------


 First call to EWALD:  gamma=   0.438
 Maximum number of real-space cells 3x 3x 3
 Maximum number of reciprocal cells 3x 3x 3

    FEWALD:  cpu time    0.0021: real time    0.0021


--------------------------------------- Iteration      1(   1)  ---------------------------------------


    POTLOK:  cpu time    0.0155: real time    0.0185
[...]
      9      14.9877      0.00000
     10      15.9202      0.00000
     11      15.9202      0.00000
     12      16.8657      0.00000
     13      16.9450      0.00000
     14      16.9450      0.00000
     15      17.2426      0.00000
     16      19.0705      0.00000

 k-point   238 :      -0.3125   -0.3125    0.4375
  band No.  band energies     occupation 
      1       0.2909      2.00000
      2       1.3900      2.00000
      3       3.5555      2.00000
      4       3.5555      2.00000
      5       4.6532      2.00000
      6       4.6532      2.00000
      7       6.7773      2.00000
      8       7.8360      1.64895
      9      14.2228      0.00000
     10      14.2228      0.00000
     11      15.2242      0.00000
     12      15.2242      0.00000
     13      16.2474      0.00000
     14      16.5096      0.00000
     15      17.4775      0.00000
     16      18.2564      0.00000

 k-point   239 :      -0.1875   -0.3125    0.4375
  band No.  band energies     occupation 
      1      -0.2622      2.00000
      2       0.8412      2.00000
      3       3.0198      2.00000
      4       4.0914      2.00000
      5       5.1736      2.00000
      6       6.2308      2.00000
      7       8.3416     -0.01119
      8       9.3921     -0.00000
      9      11.7031     -0.00000
     10      12.6930     -0.00000
     11      13.7940      0.00000
     12      14.6755      0.00000
     13      14.7150      0.00000
     14      15.6748      0.00000
     15      15.7931      0.00000
     16      18.6716      0.00000

 k-point   240 :      -0.0625   -0.3125    0.4375
  band No.  band energies     occupation 
      1      -0.5395      2.00000
      2       0.5660      2.00000
      3       2.7492      2.00000
      4       3.8284      2.00000
      5       6.9000      2.00000
      6       7.9481      0.76819
      7       9.4948     -0.00000
      8      10.0382     -0.00000
      9      10.5327     -0.00000
     10      11.0804     -0.00000
     11      12.5809     -0.00000
     12      13.5196      0.00000
     13      13.5985      0.00000
     14      14.4632      0.00000
     15      15.5442      0.00000
     16      18.4413      0.00000

 k-point   241 :       0.0625   -0.1875    0.4375
  band No.  band energies     occupation 
      1      -1.0957      2.00000
      2       0.0141      2.00000
      3       4.3504      2.00000
      4       5.4091      2.00000
      5       6.3801      2.00000
      6       7.4220      2.00240
      7       8.9550     -0.00000
      8       9.9463     -0.00000
      9      11.0331     -0.00000
     10      11.5864     -0.00000
     11      11.9988     -0.00000
     12      12.6238     -0.00000
     13      13.9817      0.00000
     14      14.9939      0.00000
     15      15.0627      0.00000
     16      18.0191      0.00000

 k-point   242 :       0.1875   -0.1875    0.4375
  band No.  band energies     occupation 
      1      -0.8173      2.00000
      2       0.2903      2.00000
      3       4.6113      2.00000
      4       4.6113      2.00000
      5       5.7056      2.00000
      6       5.7056      2.00000
      7       9.8934     -0.00000
      8      10.9369     -0.00000
      9      11.1437     -0.00000
     10      11.1437     -0.00000
     11      12.2866     -0.00000
     12      12.2866     -0.00000
     13      15.2673      0.00000
     14      15.5341      0.00000
     15      16.4976      0.00000
     16      17.2033      0.00000

 k-point   243 :       0.3125   -0.1875    0.4375
  band No.  band energies     occupation 
      1      -0.2622      2.00000
      2       0.8412      2.00000
      3       3.0198      2.00000
      4       4.0914      2.00000
      5       5.1736      2.00000
      6       6.2308      2.00000
      7       8.3416     -0.01119
      8       9.3921     -0.00000
      9      11.7031     -0.00000
     10      12.6930     -0.00000
     11      13.7940      0.00000
     12      14.6755      0.00000
     13      14.7150      0.00000
     14      15.6748      0.00000
     15      15.7931      0.00000
     16      18.6716      0.00000

 k-point   244 :       0.4375   -0.1875    0.4375
  band No.  band energies     occupation 
      1       0.5665      2.00000
      2       1.6635      2.00000
      3       1.6635      2.00000
      4       2.7516      2.00000
      5       5.9661      2.00000
      6       7.0265      2.00000
      7       7.0265      2.00000
      8       8.0828      0.01395
      9      12.4803     -0.00000
     10      13.4884      0.00000
     11      13.4884      0.00000
     12      14.4912      0.00000
     13      16.4620      0.00000
     14      16.4620      0.00000
     15      16.7566      0.00000
     16      18.6570      0.00000

 k-point   245 :      -0.4375   -0.1875    0.4375
  band No.  band energies     occupation 
      1       0.5665      2.00000
      2       1.6635      2.00000
      3       1.6635      2.00000
      4       2.7516      2.00000
      5       5.9661      2.00000
      6       7.0265      2.00000
      7       7.0265      2.00000
      8       8.0828      0.01395
      9      12.4803     -0.00000
     10      13.4884      0.00000
     11      13.4884      0.00000
     12      14.4912      0.00000
     13      16.4620      0.00000
     14      16.4620      0.00000
     15      16.7566      0.00000
     16      18.6800      0.00000

 k-point   246 :      -0.3125   -0.1875    0.4375
  band No.  band energies     occupation 
      1      -0.2622      2.00000
      2       0.8412      2.00000
      3       3.0198      2.00000
      4       4.0914      2.00000
      5       5.1736      2.00000
      6       6.2308      2.00000
      7       8.3416     -0.01119
      8       9.3921     -0.00000
      9      11.7031     -0.00000
     10      12.6930     -0.00000
     11      13.7940      0.00000
     12      14.6755      0.00000
     13      14.7150      0.00000
     14      15.6748      0.00000
     15      15.7931      0.00000
     16      18.6716      0.00000

 k-point   247 :      -0.1875   -0.1875    0.4375
  band No.  band energies     occupation 
      1      -0.8173      2.00000
      2       0.2903      2.00000
      3       4.6113      2.00000
      4       4.6113      2.00000
      5       5.7056      2.00000
      6       5.7056      2.00000
      7       9.8934     -0.00000
      8      10.9369     -0.00000
      9      11.1437     -0.00000
     10      11.1437     -0.00000
     11      12.2866     -0.00000
     12      12.2866     -0.00000
     13      15.2673      0.00000
     14      15.5341      0.00000
     15      16.4976      0.00000
     16      17.2033      0.00000

 k-point   248 :      -0.0625   -0.1875    0.4375
  band No.  band energies     occupation 
      1      -1.0957      2.00000
      2       0.0141      2.00000
      3       4.3504      2.00000
      4       5.4091      2.00000
      5       6.3801      2.00000
      6       7.4220      2.00240
      7       8.9550     -0.00000
      8       9.9463     -0.00000
      9      11.0331     -0.00000
     10      11.5864     -0.00000
     11      11.9988     -0.00000
     12      12.6238     -0.00000
     13      13.9817      0.00000
     14      14.9939      0.00000
     15      15.0627      0.00000
     16      18.0189      0.00000

 k-point   249 :       0.0625   -0.0625    0.4375
  band No.  band energies     occupation 
      1      -1.3745      2.00000
      2      -0.2627      2.00000
      3       6.0961      2.00000
      4       6.0961      2.00000
      5       7.1507      2.00000
      6       7.1507      2.00000
      7       8.6237     -0.00001
      8       8.6237     -0.00001
      9       9.8738     -0.00000
     10       9.8738     -0.00000
     11      13.3169     -0.00000
     12      14.3488      0.00000
     13      14.7652      0.00000
     14      15.0466      0.00000
     15      16.0074      0.00000
     16      16.1174      0.00000

 k-point   250 :       0.1875   -0.0625    0.4375
  band No.  band energies     occupation 
      1      -1.0957      2.00000
      2       0.0141      2.00000
      3       4.3504      2.00000
      4       5.4091      2.00000
      5       6.3801      2.00000
      6       7.4220      2.00240
      7       8.9550     -0.00000
      8       9.9463     -0.00000
      9      11.0331     -0.00000
     10      11.5864     -0.00000
     11      11.9988     -0.00000
     12      12.6238     -0.00000
     13      13.9817      0.00000
     14      14.9939      0.00000
     15      15.0627      0.00000
     16      18.0236      0.00000

 k-point   251 :       0.3125   -0.0625    0.4375
  band No.  band energies     occupation 
      1      -0.5395      2.00000
      2       0.5660      2.00000
      3       2.7492      2.00000
      4       3.8284      2.00000
      5       6.9000      2.00000
      6       7.9481      0.76819
      7       9.4948     -0.00000
      8      10.0382     -0.00000
      9      10.5327     -0.00000
     10      11.0804     -0.00000
     11      12.5809     -0.00000
     12      13.5196      0.00000
     13      13.5985      0.00000
     14      14.4632      0.00000
     15      15.5442      0.00000
     16      18.4413      0.00000

 k-point   252 :       0.4375   -0.0625    0.4375
  band No.  band energies     occupation 
      1       0.2908      2.00000
      2       1.3898      2.00000
      3       1.3898      2.00000
      4       2.4803      2.00000
      5       7.6872      2.06977
      6       8.7347     -0.00000
      7       8.7347     -0.00000
      8       9.7802     -0.00000
      9      10.2870     -0.00000
     10      11.3238     -0.00000
     11      11.3238     -0.00000
     12      12.3521     -0.00000
     13      16.2173      0.00000
     14      16.2173      0.00000
     15      16.5138      0.00000
     16      18.4326      0.00000

 k-point   253 :      -0.4375   -0.0625    0.4375
  band No.  band energies     occupation 
      1       0.2908      2.00000
      2       1.3898      2.00000
      3       1.3898      2.00000
      4       2.4803      2.00000
      5       7.6872      2.06977
      6       8.7347     -0.00000
      7       8.7347     -0.00000
      8       9.7802     -0.00000
      9      10.2870     -0.00000
     10      11.3238     -0.00000
     11      11.3238     -0.00000
     12      12.3521     -0.00000
     13      16.2173      0.00000
     14      16.2173      0.00000
     15      16.5138      0.00000
     16      18.4289      0.00000

 k-point   254 :      -0.3125   -0.0625    0.4375
  band No.  band energies     occupation 
      1      -0.5395      2.00000
      2       0.5660      2.00000
      3       2.7492      2.00000
      4       3.8284      2.00000
      5       6.9000      2.00000
      6       7.9481      0.76819
      7       9.4948     -0.00000
      8      10.0382     -0.00000
      9      10.5327     -0.00000
     10      11.0804     -0.00000
     11      12.5809     -0.00000
     12      13.5196      0.00000
     13      13.5985      0.00000
     14      14.4632      0.00000
     15      15.5442      0.00000
     16      18.4413      0.00000

 k-point   255 :      -0.1875   -0.0625    0.4375
  band No.  band energies     occupation 
      1      -1.0957      2.00000
      2       0.0141      2.00000
      3       4.3504      2.00000
      4       5.4091      2.00000
      5       6.3801      2.00000
      6       7.4220      2.00240
      7       8.9550     -0.00000
      8       9.9463     -0.00000
      9      11.0331     -0.00000
     10      11.5864     -0.00000
     11      11.9988     -0.00000
     12      12.6238     -0.00000
     13      13.9817      0.00000
     14      14.9939      0.00000
     15      15.0627      0.00000
     16      18.0193      0.00000

 k-point   256 :      -0.0625   -0.0625    0.4375
  band No.  band energies     occupation 
      1      -1.3745      2.00000
      2      -0.2627      2.00000
      3       6.0961      2.00000
      4       6.0961      2.00000
      5       7.1507      2.00000
      6       7.1507      2.00000
      7       8.6237     -0.00001
      8       8.6237     -0.00001
      9       9.8738     -0.00000
     10       9.8738     -0.00000
     11      13.3169     -0.00000
     12      14.3488      0.00000
     13      14.7652      0.00000
     14      15.0466      0.00000
     15      16.0074      0.00000
     16      16.1174      0.00000


--------------------------------------------------------------------------------------------------------


 soft charge-density along one line, spin component           1
         0         1         2         3         4         5         6         7         8         9
 total charge-density along one line
 
 pseudopotential strength for first ion, spin component:           1
  8.544  -0.006   0.000  -0.000  -0.000  -0.000   0.000  -0.000
 -0.006   0.000  -0.000   0.000  -0.000   0.000  -0.000   0.000
  0.000  -0.000   2.015  -0.000  -0.000  -0.027  -0.000   0.000
 -0.000   0.000  -0.000   2.015  -0.000  -0.000  -0.027  -0.000
 -0.000  -0.000  -0.000  -0.000   2.015   0.000  -0.000  -0.027
 -0.000   0.000  -0.027  -0.000   0.000  -0.012   0.000  -0.000
  0.000  -0.000  -0.000  -0.027  -0.000   0.000  -0.012   0.000
 -0.000   0.000   0.000  -0.000  -0.027  -0.000   0.000  -0.012
 total augmentation occupancy for first ion, spin component:           1
  1.332  -0.476  -0.000   0.000   0.000  -0.000   0.000   0.000
 -0.476   0.476  -0.000   0.000  -0.000   0.000  -0.000   0.000
 -0.000  -0.000   0.732   0.000   0.000  -0.148   0.000   0.000
  0.000   0.000   0.000   0.732   0.000   0.000  -0.148   0.000
  0.000  -0.000   0.000   0.000   0.732   0.000   0.000  -0.148
 -0.000   0.000  -0.148   0.000   0.000   0.035  -0.000  -0.000
  0.000  -0.000   0.000  -0.148   0.000  -0.000   0.035  -0.000
  0.000   0.000   0.000   0.000  -0.148  -0.000  -0.000   0.035


------------------------ aborting loop because EDIFF is reached ----------------------------------------


    CHARGE:  cpu time    0.1047: real time    0.1047
    FORLOC:  cpu time    0.0006: real time    0.0006
    FORNL :  cpu time    0.1968: real time    0.1968
    STRESS:  cpu time    1.0007: real time    1.0009
    FORCOR:  cpu time    0.0092: real time    0.0092
    FORHAR:  cpu time    0.0018: real time    0.0018
    MIXING:  cpu time    0.0005: real time    0.0005
    OFIELD:  cpu time    0.0000: real time    0.0000

  FORCE on cell =-STRESS in cart. coord.  units (eV):
  Direction    XX          YY          ZZ          XY          YZ          ZX
  --------------------------------------------------------------------------------------
  Alpha Z    -0.61627    -0.61627    -0.61627
  Ewald     -97.96606   -97.96606   -97.96606     0.00000     0.00000     0.00000
  Hartree     0.13998     0.13998     0.13998     0.00000     0.00000     0.00000
  E(xc)     -34.57843   -34.57843   -34.57843    -0.00000     0.00000    -0.00000
  Local       0.95376     0.95376     0.95376    -0.00000    -0.00000    -0.00000
  n-local    76.26748    76.26748    76.26748     0.00000     0.00000     0.00000
  augment    -4.28214    -4.28214    -4.28214     0.00000    -0.00000    -0.00000
  Kinetic    60.06225    60.06225    60.06225     0.00000     0.00000     0.00000
  Fock        0.00000     0.00000     0.00000     0.00000     0.00000     0.00000
  -------------------------------------------------------------------------------------
  Total      -0.01942    -0.01942    -0.01942     0.00000     0.00000     0.00000
  in kB      -0.47071    -0.47071    -0.47071     0.00000     0.00000     0.00000
  external pressure =       -0.47 kB  Pullay stress =        0.00 kB


 VOLUME and BASIS-vectors are now :
 -----------------------------------------------------------------------------
  energy-cutoff  :      600.00
  volume of cell :       66.11
      direct lattice vectors                 reciprocal lattice vectors
     4.043506612 -0.000000001 -0.000000001     0.247310094  0.000000000  0.000000000
    -0.000000001  4.043506611 -0.000000001     0.000000000  0.247310094  0.000000000
    -0.000000001 -0.000000001  4.043506610     0.000000000  0.000000000  0.247310094

  length of vectors
     4.043506612  4.043506611  4.043506610     0.247310094  0.247310094  0.247310094


 FORCES acting on ions
    electron-ion (+dipol)            ewald-force                    non-local-force                 convergence-correction
 -----------------------------------------------------------------------------------------------
   0.126E-07 0.715E-08 0.335E-07   -.793E-08 -.720E-08 -.323E-07   -.827E-08 0.194E-08 -.492E-08   0.231E-08 0.435E-09 -.153E-08
   -.244E-07 -.132E-07 -.355E-07   0.971E-08 0.133E-07 0.280E-07   0.108E-07 -.184E-09 0.785E-08   0.345E-08 -.946E-09 0.155E-08
   0.110E-08 0.156E-07 -.367E-07   0.186E-08 -.115E-07 0.300E-07   -.940E-09 -.744E-08 0.663E-08   -.219E-08 0.526E-09 0.231E-08
   0.180E-07 -.161E-08 0.414E-07   -.365E-08 0.541E-08 -.257E-07   -.979E-08 -.282E-08 -.113E-07   -.397E-08 -.721E-10 -.231E-08
 -----------------------------------------------------------------------------------------------
   0.730E-08 0.795E-08 0.270E-08   0.755E-16 0.146E-15 0.788E-16   -.818E-08 -.850E-08 -.175E-08   -.395E-09 -.562E-10 0.164E-10
 
 
 POSITION                                       TOTAL-FORCE (eV/Angst)
 -----------------------------------------------------------------------------------
      0.00000      0.00000      0.00000        -0.000000      0.000000     -0.000000
     -0.00000      2.02175      2.02175        -0.000000     -0.000000      0.000000
      2.02175     -0.00000      2.02175         0.000000     -0.000000      0.000000
      2.02175      2.02175     -0.00000         0.000000      0.000000      0.000000
 -----------------------------------------------------------------------------------
    total drift:                               -0.000000     -0.000000      0.000000


--------------------------------------------------------------------------------------------------------



  FREE ENERGIE OF THE ION-ELECTRON SYSTEM (eV)
  ---------------------------------------------------
  free  energy   TOTEN  =       -14.80458137 eV

  energy  without entropy=      -14.80230955  energy(sigma->0) =      -14.80382410
 
 d Force =-0.3772233E-17[-0.400E-17,-0.354E-17]  d Energy = 0.2720022E-03-0.272E-03
 d Force =-0.3308678E-16[-0.530E-16,-0.132E-16]  d Ewald  = 0.3535481E+00-0.354E+00


--------------------------------------------------------------------------------------------------------


    POTLOK:  cpu time    0.0102: real time    0.0102


--------------------------------------------------------------------------------------------------------




--------------------------------------------------------------------------------------------------------


  
 reached required accuracy - stopping structural energy minimisation
     LOOP+:  cpu time    9.3757: real time    9.3782
    4ORBIT:  cpu time    0.0000: real time    0.0000

 total amount of memory used by VASP MPI-rank0    60451. kBytes
=======================================================================

   base      :      30000. kBytes
   nonl-proj :      18553. kBytes
   fftplans  :       1055. kBytes
   grid      :       1466. kBytes
   one-center:          6. kBytes
   wavefun   :       9371. kBytes
 
  
  
 General timing and accounting informations for this job:
 ========================================================
  
                  Total CPU time used (sec):       38.308
                            User time (sec):       35.471
                          System time (sec):        2.836
                         Elapsed time (sec):       38.833
  
                   Maximum memory used (kb):      137580.
                   Average memory used (kb):           0.
  
                          Minor page faults:        16917
                          Major page faults:          123
                 Voluntary context switches:          609
