<?xml version="1.0" encoding="ISO-8859-1"?>
<modeling>
 <generator>
  <i name="program" type="string">vasp </i>
  <i name="version" type="string">5.4.4.18Apr17-6-g9f103f2a35  </i>
  <i name="subversion" type="string">(build Nov 22 2021 14:44:17) complex            parallel </i>
  <i name="platform" type="string">LinuxIFC </i>
  <i name="date" type="string">2022 09 18 </i>
  <i name="time" type="string">19:40:33 </i>
 </generator>
 <incar>
  <i type="string" name="SYSTEM"> Opt</i>
  <i type="int" name="ISTART">     0</i>
  <i type="string" name="PREC">accurate</i>
  <i type="string" name="ALGO"> Normal</i>
  <i type="int" name="ICHARG">     2</i>
  <i type="int" name="NELM">   100</i>
  <i type="int" name="NELMIN">     6</i>
  <i type="int" name="IBRION">     2</i>
  <i name="EDIFF">      0.00000100</i>
  <i name="EDIFFG">     -0.01000000</i>
  <i type="int" name="NSW">   200</i>
  <i type="int" name="ISIF">     3</i>
  <i type="int" name="ISYM">     0</i>
  <i name="ENCUT">    600.00000000</i>
  <i name="POTIM">      0.10000000</i>
  <i type="int" name="ISMEAR">     1</i>
  <i name="SIGMA">      0.20000000</i>
  <i name="KSPACING">      0.20000000</i>
  <i name="PSTRESS">      0.00000000</i>
  <i type="logical" name="LWAVE"> F  </i>
  <i type="logical" name="LCHARG"> F  </i>
  <v type="int" name="KPOINT_BSE">    -1     0     0     0</v>
  <i type="int" name="NELM">   100</i>
 </incar>
 <structure name="primitive_cell" >
  <crystal>
   <varray name="basis" >
    <v>       4.05000000       0.00000000       0.00000000 </v>
    <v>       0.00000000       4.05000000       0.00000000 </v>
    <v>       0.00000000       0.00000000       4.05000000 </v>
   </varray>
   <i name="volume">     66.43012500 </i>
   <varray name="rec_basis" >
    <v>       0.24691358       0.00000000       0.00000000 </v>
    <v>       0.00000000       0.24691358       0.00000000 </v>
    <v>       0.00000000       0.00000000       0.24691358 </v>
   </varray>
  </crystal>
  <varray name="positions" >
   <v>       0.00000000       0.00000000       0.00000000 </v>
   <v>       0.00000000      -0.50000000      -0.50000000 </v>
   <v>      -0.50000000       0.00000000      -0.50000000 </v>
   <v>      -0.50000000      -0.50000000       0.00000000 </v>
  </varray>
 </structure>
 <varray name="primitive_index" >
  <v type="int" >        1 </v>
  <v type="int" >        2 </v>
  <v type="int" >        3 </v>
  <v type="int" >        4 </v>
 </varray>
 <kpoints>
  <generation param="Monkhorst-Pack">
   <v type="int" name="divisions">       8        8        8 </v>
   <v name="usershift">      0.00000000       0.00000000       0.00000000 </v>
   <v name="genvec1">      0.12500000       0.00000000       0.00000000 </v>
   <v name="genvec2">      0.00000000       0.12500000       0.00000000 </v>
   <v name="genvec3">      0.00000000       0.00000000       0.12500000 </v>
   <v name="shift">      0.50000000       0.50000000       0.50000000 </v>
  </generation>
  <varray name="kpointlist" >
   <v>       0.06250000       0.06250000       0.06250000 </v>
   <v>       0.18750000       0.06250000       0.06250000 </v>
   <v>       0.31250000       0.06250000       0.06250000 </v>
   <v>       0.43750000       0.06250000       0.06250000 </v>
   <v>      -0.43750000       0.06250000       0.06250000 </v>
   <v>      -0.31250000       0.06250000       0.06250000 </v>
   <v>      -0.18750000       0.06250000       0.06250000 </v>
   <v>      -0.06250000       0.06250000       0.06250000 </v>
   <v>       0.06250000       0.18750000       0.06250000 </v>
   <v>       0.18750000       0.18750000       0.06250000 </v>
   <v>       0.31250000       0.18750000       0.06250000 </v>
   <v>       0.43750000       0.18750000       0.06250000 </v>
   <v>      -0.43750000       0.18750000       0.06250000 </v>
   <v>      -0.31250000       0.18750000       0.06250000 </v>
   <v>      -0.18750000       0.18750000       0.06250000 </v>
   <v>      -0.06250000       0.18750000       0.06250000 </v>
   <v>       0.06250000       0.31250000       0.06250000 </v>
   <v>       0.18750000       0.31250000       0.06250000 </v>
   <v>       0.31250000       0.31250000       0.06250000 </v>
   <v>       0.43750000       0.31250000       0.06250000 </v>
   <v>      -0.43750000       0.31250000       0.06250000 </v>
   <v>      -0.31250000       0.31250000       0.06250000 </v>
   <v>      -0.18750000       0.31250000       0.06250000 </v>
   <v>      -0.06250000       0.31250000       0.06250000 </v>
   <v>       0.06250000       0.43750000       0.06250000 </v>
   <v>       0.18750000       0.43750000       0.06250000 </v>
   <v>       0.31250000       0.43750000       0.06250000 </v>
   <v>       0.43750000       0.43750000       0.06250000 </v>
   <v>      -0.43750000       0.43750000       0.06250000 </v>
   <v>      -0.31250000       0.43750000       0.06250000 </v>
   <v>      -0.18750000       0.43750000       0.06250000 </v>
   <v>      -0.06250000       0.43750000       0.06250000 </v>
   <v>       0.06250000      -0.43750000       0.06250000 </v>
   <v>       0.18750000      -0.43750000       0.06250000 </v>
   <v>       0.31250000      -0.43750000       0.06250000 </v>
   <v>       0.43750000      -0.43750000       0.06250000 </v>
   <v>      -0.43750000      -0.43750000       0.06250000 </v>
   <v>      -0.31250000      -0.43750000       0.06250000 </v>
   <v>      -0.18750000      -0.43750000       0.06250000 </v>
   <v>      -0.06250000      -0.43750000       0.06250000 </v>
   <v>       0.06250000      -0.31250000       0.06250000 </v>
   <v>       0.18750000      -0.31250000       0.06250000 </v>
   <v>       0.31250000      -0.31250000       0.06250000 </v>
   <v>       0.43750000      -0.31250000       0.06250000 </v>
   <v>      -0.43750000      -0.31250000       0.06250000 </v>
   <v>      -0.31250000      -0.31250000       0.06250000 </v>
   <v>      -0.18750000      -0.31250000       0.06250000 </v>
   <v>      -0.06250000      -0.31250000       0.06250000 </v>
   <v>       0.06250000      -0.18750000       0.06250000 </v>
   <v>       0.18750000      -0.18750000       0.06250000 </v>
   <v>       0.31250000      -0.18750000       0.06250000 </v>
   <v>       0.43750000      -0.18750000       0.06250000 </v>
   <v>      -0.43750000      -0.18750000       0.06250000 </v>
   <v>      -0.31250000      -0.18750000       0.06250000 </v>
   <v>      -0.18750000      -0.18750000       0.06250000 </v>
   <v>      -0.06250000      -0.18750000       0.06250000 </v>
   <v>       0.06250000      -0.06250000       0.06250000 </v>
   <v>       0.18750000      -0.06250000       0.06250000 </v>
   <v>       0.31250000      -0.06250000       0.06250000 </v>
   <v>       0.43750000      -0.06250000       0.06250000 </v>
   <v>      -0.43750000      -0.06250000       0.06250000 </v>
   <v>      -0.31250000      -0.06250000       0.06250000 </v>
   <v>      -0.18750000      -0.06250000       0.06250000 </v>
   <v>      -0.06250000      -0.06250000       0.06250000 </v>
   <v>       0.06250000       0.06250000       0.18750000 </v>
   <v>       0.18750000       0.06250000       0.18750000 </v>
   <v>       0.31250000       0.06250000       0.18750000 </v>
   <v>       0.43750000       0.06250000       0.18750000 </v>
   <v>      -0.43750000       0.06250000       0.18750000 </v>
   <v>      -0.31250000       0.06250000       0.18750000 </v>
   <v>      -0.18750000       0.06250000       0.18750000 </v>
   <v>      -0.06250000       0.06250000       0.18750000 </v>
   <v>       0.06250000       0.18750000       0.18750000 </v>
   <v>       0.18750000       0.18750000       0.18750000 </v>
   <v>       0.31250000       0.18750000       0.18750000 </v>
   <v>       0.43750000       0.18750000       0.18750000 </v>
   <v>      -0.43750000       0.18750000       0.18750000 </v>
   <v>      -0.31250000       0.18750000       0.18750000 </v>
   <v>      -0.18750000       0.18750000       0.18750000 </v>
   <v>      -0.06250000       0.18750000       0.18750000 </v>
   <v>       0.06250000       0.31250000       0.18750000 </v>
   <v>       0.18750000       0.31250000       0.18750000 </v>
   <v>       0.31250000       0.31250000       0.18750000 </v>
   <v>       0.43750000       0.31250000       0.18750000 </v>
   <v>      -0.43750000       0.31250000       0.18750000 </v>
   <v>      -0.31250000       0.31250000       0.18750000 </v>
   <v>      -0.18750000       0.31250000       0.18750000 </v>
   <v>      -0.06250000       0.31250000       0.18750000 </v>
   <v>       0.06250000       0.43750000       0.18750000 </v>
   <v>       0.18750000       0.43750000       0.18750000 </v>
   <v>       0.31250000       0.43750000       0.18750000 </v>
   <v>       0.43750000       0.43750000       0.18750000 </v>
   <v>      -0.43750000       0.43750000       0.18750000 </v>
   <v>      -0.31250000       0.43750000       0.18750000 </v>
   <v>      -0.18750000       0.43750000       0.18750000 </v>
   <v>      -0.06250000       0.43750000       0.18750000 </v>
   <v>       0.06250000      -0.43750000       0.18750000 </v>
   <v>       0.18750000      -0.43750000       0.18750000 </v>
   <v>       0.31250000      -0.43750000       0.18750000 </v>
   <v>       0.43750000      -0.43750000       0.18750000 </v>
   <v>      -0.43750000      -0.43750000       0.18750000 </v>
   <v>      -0.31250000      -0.43750000       0.18750000 </v>
   <v>      -0.18750000      -0.43750000       0.18750000 </v>
   <v>      -0.06250000      -0.43750000       0.18750000 </v>
   <v>       0.06250000      -0.31250000       0.18750000 </v>
   <v>       0.18750000      -0.31250000       0.18750000 </v>
   <v>       0.31250000      -0.31250000       0.18750000 </v>
   <v>       0.43750000      -0.31250000       0.18750000 </v>
   <v>      -0.43750000      -0.31250000       0.18750000 </v>
   <v>      -0.31250000      -0.31250000       0.18750000 </v>
   <v>      -0.18750000      -0.31250000       0.18750000 </v>
   <v>      -0.06250000      -0.31250000       0.18750000 </v>
   <v>       0.06250000      -0.18750000       0.18750000 </v>
   <v>       0.18750000      -0.18750000       0.18750000 </v>
   <v>       0.31250000      -0.18750000       0.18750000 </v>
   <v>       0.43750000      -0.18750000       0.18750000 </v>
   <v>      -0.43750000      -0.18750000       0.18750000 </v>
   <v>      -0.31250000      -0.18750000       0.18750000 </v>
   <v>      -0.18750000      -0.18750000       0.18750000 </v>
   <v>      -0.06250000      -0.18750000       0.18750000 </v>
   <v>       0.06250000      -0.06250000       0.18750000 </v>
   <v>       0.18750000      -0.06250000       0.18750000 </v>
   <v>       0.31250000      -0.06250000       0.18750000 </v>
   <v>       0.43750000      -0.06250000       0.18750000 </v>
   <v>      -0.43750000      -0.06250000       0.18750000 </v>
   <v>      -0.31250000      -0.06250000       0.18750000 </v>
   <v>      -0.18750000      -0.06250000       0.18750000 </v>
   <v>      -0.06250000      -0.06250000       0.18750000 </v>
   <v>       0.06250000       0.06250000       0.31250000 </v>
   <v>       0.18750000       0.06250000       0.31250000 </v>
   <v>       0.31250000       0.06250000       0.31250000 </v>
   <v>       0.43750000       0.06250000       0.31250000 </v>
   <v>      -0.43750000       0.06250000       0.31250000 </v>
   <v>      -0.31250000       0.06250000       0.31250000 </v>
   <v>      -0.18750000       0.06250000       0.31250000 </v>
   <v>      -0.06250000       0.06250000       0.31250000 </v>
   <v>       0.06250000       0.18750000       0.31250000 </v>
   <v>       0.18750000       0.18750000       0.31250000 </v>
   <v>       0.31250000       0.18750000       0.31250000 </v>
   <v>       0.43750000       0.18750000       0.31250000 </v>
   <v>      -0.43750000       0.18750000       0.31250000 </v>
   <v>      -0.31250000       0.18750000       0.31250000 </v>
   <v>      -0.18750000       0.18750000       0.31250000 </v>
   <v>      -0.06250000       0.18750000       0.31250000 </v>
   <v>       0.06250000       0.31250000       0.31250000 </v>
   <v>       0.18750000       0.31250000       0.31250000 </v>
   <v>       0.31250000       0.31250000       0.31250000 </v>
   <v>       0.43750000       0.31250000       0.31250000 </v>
   <v>      -0.43750000       0.31250000       0.31250000 </v>
   <v>      -0.31250000       0.31250000       0.31250000 </v>
   <v>      -0.18750000       0.31250000       0.31250000 </v>
   <v>      -0.06250000       0.31250000       0.31250000 </v>
   <v>       0.06250000       0.43750000       0.31250000 </v>
   <v>       0.18750000       0.43750000       0.31250000 </v>
   <v>       0.31250000       0.43750000       0.31250000 </v>
   <v>       0.43750000       0.43750000       0.31250000 </v>
   <v>      -0.43750000       0.43750000       0.31250000 </v>
   <v>      -0.31250000       0.43750000       0.31250000 </v>
   <v>      -0.18750000       0.43750000       0.31250000 </v>
   <v>      -0.06250000       0.43750000       0.31250000 </v>
   <v>       0.06250000      -0.43750000       0.31250000 </v>
   <v>       0.18750000      -0.43750000       0.31250000 </v>
   <v>       0.31250000      -0.43750000       0.31250000 </v>
   <v>       0.43750000      -0.43750000       0.31250000 </v>
   <v>      -0.43750000      -0.43750000       0.31250000 </v>
   <v>      -0.31250000      -0.43750000       0.31250000 </v>
   <v>      -0.18750000      -0.43750000       0.31250000 </v>
   <v>      -0.06250000      -0.43750000       0.31250000 </v>
   <v>       0.06250000      -0.31250000       0.31250000 </v>
   <v>       0.18750000      -0.31250000       0.31250000 </v>
   <v>       0.31250000      -0.31250000       0.31250000 </v>
   <v>       0.43750000      -0.31250000       0.31250000 </v>
   <v>      -0.43750000      -0.31250000       0.31250000 </v>
   <v>      -0.31250000      -0.31250000       0.31250000 </v>
   <v>      -0.18750000      -0.31250000       0.31250000 </v>
   <v>      -0.06250000      -0.31250000       0.31250000 </v>
   <v>       0.06250000      -0.18750000       0.31250000 </v>
   <v>       0.18750000      -0.18750000       0.31250000 </v>
   <v>       0.31250000      -0.18750000       0.31250000 </v>
   <v>       0.43750000      -0.18750000       0.31250000 </v>
   <v>      -0.43750000      -0.18750000       0.31250000 </v>
   <v>      -0.31250000      -0.18750000       0.31250000 </v>
   <v>      -0.18750000      -0.18750000       0.31250000 </v>
   <v>      -0.06250000      -0.18750000       0.31250000 </v>
   <v>       0.06250000      -0.06250000       0.31250000 </v>
   <v>       0.18750000      -0.06250000       0.31250000 </v>
   <v>       0.31250000      -0.06250000       0.31250000 </v>
   <v>       0.43750000      -0.06250000       0.31250000 </v>
   <v>      -0.43750000      -0.06250000       0.31250000 </v>
   <v>      -0.31250000      -0.06250000       0.31250000 </v>
   <v>      -0.18750000      -0.06250000       0.31250000 </v>
   <v>      -0.06250000      -0.06250000       0.31250000 </v>
   <v>       0.06250000       0.06250000       0.43750000 </v>
   <v>       0.18750000       0.06250000       0.43750000 </v>
   <v>       0.31250000       0.06250000       0.43750000 </v>
   <v>       0.43750000       0.06250000       0.43750000 </v>
   <v>      -0.43750000       0.06250000       0.43750000 </v>
   <v>      -0.31250000       0.06250000       0.43750000 </v>
   <v>      -0.18750000       0.06250000       0.43750000 </v>
   <v>      -0.06250000       0.06250000       0.43750000 </v>
   <v>       0.06250000       0.18750000       0.43750000 </v>
   <v>       0.18750000       0.18750000       0.43750000 </v>
   <v>       0.31250000       0.18750000       0.43750000 </v>
   <v>       0.43750000       0.18750000       0.43750000 </v>
   <v>      -0.43750000       0.18750000       0.43750000 </v>
   <v>      -0.31250000       0.18750000       0.43750000 </v>
   <v>      -0.18750000       0.18750000       0.43750000 </v>
   <v>      -0.06250000       0.18750000       0.43750000 </v>
   <v>       0.06250000       0.31250000       0.43750000 </v>
   <v>       0.18750000       0.31250000       0.43750000 </v>
   <v>       0.31250000       0.31250000       0.43750000 </v>
   <v>       0.43750000       0.31250000       0.43750000 </v>
   <v>      -0.43750000       0.31250000       0.43750000 </v>
   <v>      -0.31250000       0.31250000       0.43750000 </v>
   <v>      -0.18750000       0.31250000       0.43750000 </v>
   <v>      -0.06250000       0.31250000       0.43750000 </v>
   <v>       0.06250000       0.43750000       0.43750000 </v>
   <v>       0.18750000       0.43750000       0.43750000 </v>
   <v>       0.31250000       0.43750000       0.43750000 </v>
   <v>       0.43750000       0.43750000       0.43750000 </v>
   <v>      -0.43750000       0.43750000       0.43750000 </v>
   <v>      -0.31250000       0.43750000       0.43750000 </v>
   <v>      -0.18750000       0.43750000       0.43750000 </v>
   <v>      -0.06250000       0.43750000       0.43750000 </v>
   <v>       0.06250000      -0.43750000       0.43750000 </v>
   <v>       0.18750000      -0.43750000       0.43750000 </v>
   <v>       0.31250000      -0.43750000       0.43750000 </v>
   <v>       0.43750000      -0.43750000       0.43750000 </v>
   <v>      -0.43750000      -0.43750000       0.43750000 </v>
   <v>      -0.31250000      -0.43750000       0.43750000 </v>
   <v>      -0.18750000      -0.43750000       0.43750000 </v>
   <v>      -0.06250000      -0.43750000       0.43750000 </v>
   <v>       0.06250000      -0.31250000       0.43750000 </v>
   <v>       0.18750000      -0.31250000       0.43750000 </v>
   <v>       0.31250000      -0.31250000       0.43750000 </v>
   <v>       0.43750000      -0.31250000       0.43750000 </v>
   <v>      -0.43750000      -0.31250000       0.43750000 </v>
   <v>      -0.31250000      -0.31250000       0.43750000 </v>
   <v>      -0.18750000      -0.31250000       0.43750000 </v>
   <v>      -0.06250000      -0.31250000       0.43750000 </v>
   <v>       0.06250000      -0.18750000       0.43750000 </v>
   <v>       0.18750000      -0.18750000       0.43750000 </v>
   <v>       0.31250000      -0.18750000       0.43750000 </v>
   <v>       0.43750000      -0.18750000       0.43750000 </v>
   <v>      -0.43750000      -0.18750000       0.43750000 </v>
   <v>      -0.31250000      -0.18750000       0.43750000 </v>
   <v>      -0.18750000      -0.18750000       0.43750000 </v>
   <v>      -0.06250000      -0.18750000       0.43750000 </v>
   <v>       0.06250000      -0.06250000       0.43750000 </v>
   <v>       0.18750000      -0.06250000       0.43750000 </v>
   <v>       0.31250000      -0.06250000       0.43750000 </v>
   <v>       0.43750000      -0.06250000       0.43750000 </v>
   <v>      -0.43750000      -0.06250000       0.43750000 </v>
   <v>      -0.31250000      -0.06250000       0.43750000 </v>
   <v>      -0.18750000      -0.06250000       0.43750000 </v>
   <v>      -0.06250000      -0.06250000       0.43750000 </v>
  </varray>
  <varray name="weights" >
   <v>       0.00390625 </v>
   <v>       0.00390625 </v>
   <v>       0.00390625 </v>
   <v>       0.00390625 </v>
   <v>       0.00390625 </v>
   <v>       0.00390625 </v>
   <v>       0.00390625 </v>
   <v>       0.00390625 </v>
   <v>       0.00390625 </v>
   <v>       0.00390625 </v>
   <v>       0.00390625 </v>
   <v>       0.00390625 </v>
   <v>       0.00390625 </v>
   <v>       0.00390625 </v>
   <v>       0.00390625 </v>
   <v>       0.00390625 </v>
   <v>       0.00390625 </v>
   <v>       0.00390625 </v>
   <v>       0.00390625 </v>
   <v>       0.00390625 </v>
   <v>       0.00390625 </v>
   <v>       0.00390625 </v>
   <v>       0.00390625 </v>
   <v>       0.00390625 </v>
   <v>       0.00390625 </v>
   <v>       0.00390625 </v>
   <v>       0.00390625 </v>
   <v>       0.00390625 </v>
   <v>       0.00390625 </v>
   <v>       0.00390625 </v>
   <v>       0.00390625 </v>
   <v>       0.00390625 </v>
   <v>       0.00390625 </v>
   <v>       0.00390625 </v>
   <v>       0.00390625 </v>
   <v>       0.00390625 </v>
   <v>       0.00390625 </v>
   <v>       0.00390625 </v>
   <v>       0.00390625 </v>
   <v>       0.00390625 </v>
   <v>       0.00390625 </v>
   <v>       0.00390625 </v>
   <v>       0.00390625 </v>
   <v>       0.00390625 </v>
   <v>       0.00390625 </v>
   <v>       0.00390625 </v>
   <v>       0.00390625 </v>
   <v>       0.00390625 </v>
   <v>       0.00390625 </v>
   <v>       0.00390625 </v>
   <v>       0.00390625 </v>
   <v>       0.00390625 </v>
   <v>       0.00390625 </v>
   <v>       0.00390625 </v>
   <v>       0.00390625 </v>
   <v>       0.00390625 </v>
   <v>       0.00390625 </v>
   <v>       0.00390625 </v>
   <v>       0.00390625 </v>
   <v>       0.00390625 </v>
   <v>       0.00390625 </v>
   <v>       0.00390625 </v>
   <v>       0.00390625 </v>
   <v>       0.00390625 </v>
   <v>       0.00390625 </v>
   <v>       0.00390625 </v>
   <v>       0.00390625 </v>
   <v>       0.00390625 </v>
   <v>       0.00390625 </v>
   <v>       0.00390625 </v>
   <v>       0.00390625 </v>
   <v>       0.00390625 </v>
   <v>       0.00390625 </v>
   <v>       0.00390625 </v>
   <v>       0.00390625 </v>
   <v>       0.00390625 </v>
   <v>       0.00390625 </v>
   <v>       0.00390625 </v>
   <v>       0.00390625 </v>
   <v>       0.00390625 </v>
   <v>       0.00390625 </v>
   <v>       0.00390625 </v>
   <v>       0.00390625 </v>
   <v>       0.00390625 </v>
   <v>       0.00390625 </v>
   <v>       0.00390625 </v>
   <v>       0.00390625 </v>
   <v>       0.00390625 </v>
   <v>       0.00390625 </v>
   <v>       0.00390625 </v>
   <v>       0.00390625 </v>
   <v>       0.00390625 </v>
   <v>       0.00390625 </v>
   <v>       0.00390625 </v>
   <v>       0.00390625 </v>
   <v>       0.00390625 </v>
   <v>       0.00390625 </v>
   <v>       0.00390625 </v>
   <v>       0.00390625 </v>
   <v>       0.00390625 </v>
   <v>       0.00390625 </v>
   <v>       0.00390625 </v>
   <v>       0.00390625 </v>
   <v>       0.00390625 </v>
   <v>       0.00390625 </v>
   <v>       0.00390625 </v>
   <v>       0.00390625 </v>
   <v>       0.00390625 </v>
   <v>       0.00390625 </v>
   <v>       0.00390625 </v>
   <v>       0.00390625 </v>
   <v>       0.00390625 </v>
   <v>       0.00390625 </v>
   <v>       0.00390625 </v>
   <v>       0.00390625 </v>
   <v>       0.00390625 </v>
   <v>       0.00390625 </v>
   <v>       0.00390625 </v>
   <v>       0.00390625 </v>
   <v>       0.00390625 </v>
   <v>       0.00390625 </v>
   <v>       0.00390625 </v>
   <v>       0.00390625 </v>
   <v>       0.00390625 </v>
   <v>       0.00390625 </v>
   <v>       0.00390625 </v>
   <v>       0.00390625 </v>
   <v>       0.00390625 </v>
   <v>       0.00390625 </v>
   <v>       0.00390625 </v>
   <v>       0.00390625 </v>
   <v>       0.00390625 </v>
   <v>       0.00390625 </v>
   <v>       0.00390625 </v>
   <v>       0.00390625 </v>
   <v>       0.00390625 </v>
   <v>       0.00390625 </v>
   <v>       0.00390625 </v>
   <v>       0.00390625 </v>
   <v>       0.00390625 </v>
   <v>       0.00390625 </v>
   <v>       0.00390625 </v>
   <v>       0.00390625 </v>
   <v>       0.00390625 </v>
   <v>       0.00390625 </v>
   <v>       0.00390625 </v>
   <v>       0.00390625 </v>
   <v>       0.00390625 </v>
   <v>       0.00390625 </v>
   <v>       0.00390625 </v>
   <v>       0.00390625 </v>
   <v>       0.00390625 </v>
   <v>       0.00390625 </v>
   <v>       0.00390625 </v>
   <v>       0.00390625 </v>
   <v>       0.00390625 </v>
   <v>       0.00390625 </v>
   <v>       0.00390625 </v>
   <v>       0.00390625 </v>
   <v>       0.00390625 </v>
   <v>       0.00390625 </v>
   <v>       0.00390625 </v>
   <v>       0.00390625 </v>
   <v>       0.00390625 </v>
   <v>       0.00390625 </v>
   <v>       0.00390625 </v>
   <v>       0.00390625 </v>
   <v>       0.00390625 </v>
   <v>       0.00390625 </v>
   <v>       0.00390625 </v>
   <v>       0.00390625 </v>
   <v>       0.00390625 </v>
   <v>       0.00390625 </v>
   <v>       0.00390625 </v>
   <v>       0.00390625 </v>
   <v>       0.00390625 </v>
   <v>       0.00390625 </v>
   <v>       0.00390625 </v>
   <v>       0.00390625 </v>
   <v>       0.00390625 </v>
   <v>       0.00390625 </v>
   <v>       0.00390625 </v>
   <v>       0.00390625 </v>
   <v>       0.00390625 </v>
   <v>       0.00390625 </v>
   <v>       0.00390625 </v>
   <v>       0.00390625 </v>
   <v>       0.00390625 </v>
   <v>       0.00390625 </v>
   <v>       0.00390625 </v>
   <v>       0.00390625 </v>
   <v>       0.00390625 </v>
   <v>       0.00390625 </v>
   <v>       0.00390625 </v>
   <v>       0.00390625 </v>
   <v>       0.00390625 </v>
   <v>       0.00390625 </v>
   <v>       0.00390625 </v>
   <v>       0.00390625 </v>
   <v>       0.00390625 </v>
   <v>       0.00390625 </v>
   <v>       0.00390625 </v>
   <v>       0.00390625 </v>
   <v>       0.00390625 </v>
   <v>       0.00390625 </v>
   <v>       0.00390625 </v>
   <v>       0.00390625 </v>
   <v>       0.00390625 </v>
   <v>       0.00390625 </v>
   <v>       0.00390625 </v>
   <v>       0.00390625 </v>
   <v>       0.00390625 </v>
   <v>       0.00390625 </v>
   <v>       0.00390625 </v>
   <v>       0.00390625 </v>
   <v>       0.00390625 </v>
   <v>       0.00390625 </v>
   <v>       0.00390625 </v>
   <v>       0.00390625 </v>
   <v>       0.00390625 </v>
   <v>       0.00390625 </v>
   <v>       0.00390625 </v>
   <v>       0.00390625 </v>
   <v>       0.00390625 </v>
   <v>       0.00390625 </v>
   <v>       0.00390625 </v>
   <v>       0.00390625 </v>
   <v>       0.00390625 </v>
   <v>       0.00390625 </v>
   <v>       0.00390625 </v>
   <v>       0.00390625 </v>
   <v>       0.00390625 </v>
   <v>       0.00390625 </v>
   <v>       0.00390625 </v>
   <v>       0.00390625 </v>
   <v>       0.00390625 </v>
   <v>       0.00390625 </v>
   <v>       0.00390625 </v>
   <v>       0.00390625 </v>
   <v>       0.00390625 </v>
   <v>       0.00390625 </v>
   <v>       0.00390625 </v>
   <v>       0.00390625 </v>
   <v>       0.00390625 </v>
   <v>       0.00390625 </v>
   <v>       0.00390625 </v>
   <v>       0.00390625 </v>
   <v>       0.00390625 </v>
   <v>       0.00390625 </v>
   <v>       0.00390625 </v>
   <v>       0.00390625 </v>
   <v>       0.00390625 </v>
   <v>       0.00390625 </v>
   <v>       0.00390625 </v>
   <v>       0.00390625 </v>
   <v>       0.00390625 </v>
  </varray>
 </kpoints>
 <parameters>
  <separator name="general" >
   <i type="string" name="SYSTEM">Opt</i>
   <i type="logical" name="LCOMPAT"> F  </i>
  </separator>
  <separator name="electronic" >
   <i type="string" name="PREC">accura</i>
   <i name="ENMAX">    600.00000000</i>
   <i name="ENAUG">    291.05200000</i>
   <i name="EDIFF">      0.00000100</i>
   <i type="int" name="IALGO">    38</i>
   <i type="int" name="IWAVPR">    11</i>
   <i type="int" name="NBANDS">    16</i>
   <i name="NELECT">     12.00000000</i>
   <i type="int" name="TURBO">     0</i>
   <i type="int" name="IRESTART">     0</i>
   <i type="int" name="NREBOOT">     0</i>
   <i type="int" name="NMIN">     0</i>
   <i name="EREF">      0.00000000</i>
   <separator name="electronic smearing" >
    <i type="int" name="ISMEAR">     1</i>
    <i name="SIGMA">      0.20000000</i>
    <i name="KSPACING">      0.20000000</i>
    <i type="logical" name="KGAMMA"> T  </i>
   </separator>
   <separator name="electronic projectors" >
    <i type="logical" name="LREAL"> F  </i>
    <v name="ROPT">      0.00000000</v>
    <i type="int" name="LMAXPAW">  -100</i>
    <i type="int" name="LMAXMIX">     2</i>
    <i type="logical" name="NLSPLINE"> F  </i>
   </separator>
   <separator name="electronic startup" >
    <i type="int" name="ISTART">     0</i>
    <i type="int" name="ICHARG">     2</i>
    <i type="int" name="INIWAV">     1</i>
   </separator>
   <separator name="electronic spin" >
    <i type="int" name="ISPIN">     1</i>
    <i type="logical" name="LNONCOLLINEAR"> F  </i>
    <v name="MAGMOM">      1.00000000      1.00000000      1.00000000      1.00000000</v>
    <i name="NUPDOWN">     -1.00000000</i>
    <i type="logical" name="LSORBIT"> F  </i>
    <v name="SAXIS">      0.00000000      0.00000000      1.00000000</v>
    <i type="logical" name="LSPIRAL"> F  </i>
    <v name="QSPIRAL">      0.00000000      0.00000000      0.00000000</v>
    <i type="logical" name="LZEROZ"> F  </i>
   </separator>
   <separator name="electronic exchange-correlation" >
    <i type="logical" name="LASPH"> F  </i>
    <i type="logical" name="LMETAGGA"> F  </i>
   </separator>
   <separator name="electronic convergence" >
    <i type="int" name="NELM">   100</i>
    <i type="int" name="NELMDL">    -5</i>
    <i type="int" name="NELMIN">     6</i>
    <i name="ENINI">    600.00000000</i>
    <separator name="electronic convergence detail" >
     <i type="logical" name="LDIAG"> T  </i>
     <i type="logical" name="LSUBROT"> F  </i>
     <i name="WEIMIN">      0.00100000</i>
     <i name="EBREAK">      0.00000002</i>
     <i name="DEPER">      0.30000000</i>
     <i type="int" name="NRMM">     4</i>
     <i name="TIME">      0.40000000</i>
    </separator>
   </separator>
   <separator name="electronic mixer" >
    <i name="AMIX">      0.40000000</i>
    <i name="BMIX">      1.00000000</i>
    <i name="AMIN">      0.10000000</i>
    <i name="AMIX_MAG">      1.60000000</i>
    <i name="BMIX_MAG">      1.00000000</i>
    <separator name="electronic mixer details" >
     <i type="int" name="IMIX">     4</i>
     <i type="logical" name="MIXFIRST"> F  </i>
     <i type="int" name="MAXMIX">   -45</i>
     <i name="WC">    100.00000000</i>
     <i type="int" name="INIMIX">     1</i>
     <i type="int" name="MIXPRE">     1</i>
     <i type="int" name="MREMOVE">     5</i>
    </separator>
   </separator>
   <separator name="electronic dipolcorrection" >
    <i type="logical" name="LDIPOL"> F  </i>
    <i type="logical" name="LMONO"> F  </i>
    <i type="int" name="IDIPOL">     0</i>
    <i name="EPSILON">      1.00000000</i>
    <v name="DIPOL">   -100.00000000   -100.00000000   -100.00000000</v>
    <i name="EFIELD">      0.00000000</i>
   </separator>
  </separator>
  <separator name="grids" >
   <i type="int" name="NGX">    32</i>
   <i type="int" name="NGY">    32</i>
   <i type="int" name="NGZ">    32</i>
   <i type="int" name="NGXF">    64</i>
   <i type="int" name="NGYF">    64</i>
   <i type="int" name="NGZF">    64</i>
   <i type="logical" name="ADDGRID"> F  </i>
  </separator>
  <separator name="ionic" >
   <i type="int" name="NSW">   200</i>
   <i type="int" name="IBRION">     2</i>
   <i type="int" name="MDALGO">     0</i>
   <i type="int" name="ISIF">     3</i>
   <i name="PSTRESS">      0.00000000</i>
   <i name="EDIFFG">     -0.01000000</i>
   <i type="int" name="NFREE">     1</i>
   <i name="POTIM">      0.10000000</i>
   <i name="SMASS">     -3.00000000</i>
   <i name="SCALEE">      1.00000000</i>
  </separator>
  <separator name="ionic md" >
   <i name="TEBEG">      0.00010000</i>
   <i name="TEEND">      0.00010000</i>
   <i type="int" name="NBLOCK">     1</i>
   <i type="int" name="KBLOCK">   200</i>
   <i type="int" name="NPACO">   256</i>
   <i name="APACO">     16.00000000</i>
  </separator>
  <separator name="symmetry" >
   <i type="int" name="ISYM">     0</i>
   <i name="SYMPREC">      0.00001000</i>
  </separator>
  <separator name="dos" >
   <i type="int" name="LORBIT">     0</i>
   <v name="RWIGS">     -1.00000000</v>
   <i type="int" name="NEDOS">   301</i>
   <i name="EMIN">     10.00000000</i>
   <i name="EMAX">    -10.00000000</i>
   <i name="EFERMI">      0.00000000</i>
  </separator>
  <separator name="writing" >
   <i type="int" name="NWRITE">     2</i>
   <i type="logical" name="LWAVE"> F  </i>
   <i type="logical" name="LDOWNSAMPLE"> F  </i>
   <i type="logical" name="LCHARG"> F  </i>
   <i type="logical" name="LPARD"> F  </i>
   <i type="logical" name="LVTOT"> F  </i>
   <i type="logical" name="LVHAR"> F  </i>
   <i type="logical" name="LELF"> F  </i>
   <i type="logical" name="LOPTICS"> F  </i>
   <v name="STM">      0.00000000      0.00000000      0.00000000      0.00000000      0.00000000      0.00000000      0.00000000</v>
  </separator>
  <separator name="performance" >
   <i type="int" name="NPAR">     8</i>
   <i type="int" name="NSIM">     4</i>
   <i type="int" name="NBLK">    -1</i>
   <i type="logical" name="LPLANE"> T  </i>
   <i type="logical" name="LSCALAPACK"> T  </i>
   <i type="logical" name="LSCAAWARE"> F  </i>
   <i type="logical" name="LSCALU"> F  </i>
   <i type="logical" name="LASYNC"> F  </i>
   <i type="logical" name="LORBITALREAL"> F  </i>
  </separator>
  <separator name="miscellaneous" >
   <i type="int" name="IDIOT">     3</i>
   <i type="int" name="ISPECIAL">     0</i>
   <i type="logical" name="LMUSIC"> F  </i>
   <v name="POMASS">     26.98200000</v>
   <v name="DARWINR">      0.00000000</v>
   <v name="DARWINV">      1.00000000</v>
   <i type="logical" name="LCORR"> T  </i>
  </separator>
  <i type="logical" name="GGA_COMPAT"> T  </i>
  <i type="logical" name="LBERRY"> F  </i>
  <i type="int" name="ICORELEVEL">     0</i>
  <i type="logical" name="LDAU"> F  </i>
  <i type="int" name="I_CONSTRAINED_M">     0</i>
  <separator name="electronic exchange-correlation" >
   <i type="string" name="GGA">--</i>
   <i type="int" name="VOSKOWN">     0</i>
   <i type="logical" name="LHFCALC"> F  </i>
   <i type="string" name="PRECFOCK"></i>
   <i type="logical" name="LSYMGRAD"> F  </i>
   <i type="logical" name="LHFONE"> F  </i>
   <i type="logical" name="LRHFCALC"> F  </i>
   <i type="logical" name="LTHOMAS"> F  </i>
   <i type="logical" name="LMODELHF"> F  </i>
   <i name="ENCUT4O">     -1.00000000</i>
   <i type="int" name="EXXOEP">     0</i>
   <i type="int" name="FOURORBIT">     0</i>
   <i name="AEXX">      0.00000000</i>
   <i name="HFALPHA">      0.00000000</i>
   <i name="MCALPHA">      0.00000000</i>
   <i name="ALDAX">      1.00000000</i>
   <i name="AGGAX">      1.00000000</i>
   <i name="ALDAC">      1.00000000</i>
   <i name="AGGAC">      1.00000000</i>
   <i type="int" name="NKREDX">     1</i>
   <i type="int" name="NKREDY">     1</i>
   <i type="int" name="NKREDZ">     1</i>
   <i type="logical" name="SHIFTRED"> F  </i>
   <i type="logical" name="ODDONLY"> F  </i>
   <i type="logical" name="EVENONLY"> F  </i>
   <i type="int" name="LMAXFOCK">     0</i>
   <i type="int" name="NMAXFOCKAE">     0</i>
   <i type="logical" name="LFOCKAEDFT"> F  </i>
   <i name="HFSCREEN">      0.00000000</i>
   <i name="HFSCREENC">      0.00000000</i>
   <i type="int" name="NBANDSGWLOW">     0</i>
  </separator>
  <separator name="vdW DFT" >
   <i type="logical" name="LUSE_VDW"> F  </i>
   <i name="Zab_VDW">     -0.84910000</i>
   <i name="PARAM1">      0.12340000</i>
   <i name="PARAM2">      1.00000000</i>
   <i name="PARAM3">      0.00000000</i>
  </separator>
  <separator name="model GW" >
   <i type="int" name="MODEL_GW">     0</i>
   <i name="MODEL_EPS0">      9.96451875</i>
   <i name="MODEL_ALPHA">      1.00000000</i>
  </separator>
  <separator name="linear response parameters" >
   <i type="logical" name="LEPSILON"> F  </i>
   <i type="logical" name="LRPA"> F  </i>
   <i type="logical" name="LNABLA"> F  </i>
   <i type="logical" name="LVEL"> F  </i>
   <i type="int" name="KINTER">     0</i>
   <i name="CSHIFT">      0.10000000</i>
   <i name="OMEGAMAX">     -1.00000000</i>
   <i name="DEG_THRESHOLD">      0.00200000</i>
   <i name="RTIME">     -0.10000000</i>
   <i name="WPLASMAI">      0.00000000</i>
   <v name="DFIELD">      0.00000000      0.00000000      0.00000000</v>
   <v name="WPLASMA">      0.00000000      0.00000000      0.00000000      0.00000000      0.00000000      0.00000000      0.00000000      0.00000000      0.00000000</v>
  </separator>
  <separator name="orbital magnetization" >
   <i type="logical" name="NUCIND"> F  </i>
   <v name="MAGPOS">      0.00000000      0.00000000      0.00000000</v>
   <i type="logical" name="LNICSALL"> T  </i>
   <i type="logical" name="ORBITALMAG"> F  </i>
   <i type="logical" name="LMAGBLOCH"> F  </i>
   <i type="logical" name="LCHIMAG"> F  </i>
   <i type="logical" name="LGAUGE"> T  </i>
   <i type="int" name="MAGATOM">     0</i>
   <v name="MAGDIPOL">      0.00000000      0.00000000      0.00000000</v>
   <v name="AVECCONST">      0.00000000      0.00000000      0.00000000</v>
  </separator>
  <separator name="response functions" >
   <i type="logical" name="LADDER"> F  </i>
   <i type="logical" name="LRPAFORCE"> F  </i>
   <i type="logical" name="LFXC"> F  </i>
   <i type="logical" name="LHARTREE"> T  </i>
   <i type="int" name="IBSE">     0</i>
   <v type="int" name="KPOINT">    -1     0     0     0</v>
   <i type="logical" name="LTCTE"> F  </i>
   <i type="logical" name="LTETE"> F  </i>
   <i type="logical" name="LTRIPLET"> F  </i>
   <i type="logical" name="LFXCEPS"> F  </i>
   <i type="logical" name="LFXHEG"> F  </i>
   <i type="int" name="NATURALO">     2</i>
   <i type="logical" name="L2ORDER"> F  </i>
   <i type="logical" name="LMP2LT"> F  </i>
   <i type="logical" name="LUSEW"> F  </i>
   <i name="ENCUTGW">     -2.00000000</i>
   <i name="ENCUTGWSOFT">     -2.00000000</i>
   <i name="ENCUTLF">     -1.00000000</i>
   <i type="int" name="LMAXMP2">    -1</i>
   <i name="SCISSOR">      0.00000000</i>
   <i type="int" name="NOMEGA">     0</i>
   <i type="int" name="NOMEGAR">     0</i>
   <i type="int" name="NBANDSGW">    -1</i>
   <i type="int" name="NBANDSO">    -1</i>
   <i type="int" name="NBANDSV">    -1</i>
   <i type="int" name="NELM">   100</i>
   <i type="int" name="NELMHF">     1</i>
   <i type="int" name="DIM">     3</i>
   <i type="int" name="ANTIRES">     0</i>
   <i name="OMEGAMAX">    -30.00000000</i>
   <i name="OMEGAMIN">    -30.00000000</i>
   <i name="OMEGATL">   -200.00000000</i>
   <i type="int" name="OMEGAGRID">   140</i>
   <i name="CSHIFT">     -0.10000000</i>
   <i type="logical" name="SELFENERGY"> F  </i>
   <i type="logical" name="LSPECTRAL"> F  </i>
   <i type="logical" name="LSPECTRALGW"> F  </i>
   <i type="logical" name="LSINGLES"> F  </i>
   <i type="logical" name="LFERMIGW"> F  </i>
   <i type="logical" name="ODDONLYGW"> F  </i>
   <i type="logical" name="EVENONLYGW"> F  </i>
   <i type="int" name="NKREDLFX">     1</i>
   <i type="int" name="NKREDLFY">     1</i>
   <i type="int" name="NKREDLFZ">     1</i>
   <i type="int" name="MAXMEM">  2800</i>
   <i type="int" name="TELESCOPE">     0</i>
   <i type="int" name="TAUPAR">     1</i>
   <i type="int" name="OMEGAPAR">    -1</i>
   <i name="LAMBDA">      1.00000000</i>
  </separator>
  <separator name="External order field" >
   <i name="OFIELD_KAPPA">      0.00000000</i>
   <v name="OFIELD_K">      0.00000000      0.00000000      0.00000000</v>
   <i name="OFIELD_Q6_NEAR">      0.00000000</i>
   <i name="OFIELD_Q6_FAR">      0.00000000</i>
   <i name="OFIELD_A">      0.00000000</i>
  </separator>
 </parameters>
 <atominfo>
  <atoms>       4 </atoms>
  <types>       1 </types>
  <array name="atoms" >
   <dimension dim="1">ion</dimension>
   <field type="string">element</field>
   <field type="int">atomtype</field>
   <set>
    <rc><c>Al</c><c>   1</c></rc>
    <rc><c>Al</c><c>   1</c></rc>
    <rc><c>Al</c><c>   1</c></rc>
    <rc><c>Al</c><c>   1</c></rc>
   </set>
  </array>
  <array name="atomtypes" >
   <dimension dim="1">type</dimension>
   <field type="int">atomspertype</field>
   <field type="string">element</field>
   <field>mass</field>
   <field>valence</field>
   <field type="string">pseudopotential</field>
   <set>
    <rc><c>   4</c><c>Al</c><c>     26.98200000</c><c>      3.00000000</c><c> PAW_GGA Al 05Jan2001                   </c></rc>
   </set>
  </array>
 </atominfo>
 <structure name="initialpos" >
  <crystal>
   <varray name="basis" >
    <v>       4.05000000       0.00000000       0.00000000 </v>
    <v>       0.00000000       4.05000000       0.00000000 </v>
    <v>       0.00000000       0.00000000       4.05000000 </v>
   </varray>
   <i name="volume">     66.43012500 </i>
   <varray name="rec_basis" >
    <v>       0.24691358       0.00000000       0.00000000 </v>
    <v>       0.00000000       0.24691358       0.00000000 </v>
    <v>       0.00000000       0.00000000       0.24691358 </v>
   </varray>
  </crystal>
  <varray name="positions" >
   <v>       0.00000000       0.00000000       0.00000000 </v>
   <v>       0.00000000       0.50000000       0.50000000 </v>
   <v>       0.50000000       0.00000000       0.50000000 </v>
   <v>       0.50000000       0.50000000       0.00000000 </v>
  </varray>
 </structure>
 <calculation>
  <scstep>
   <time name="dav">    1.28    1.31</time>
   <time name="total">    1.31    1.34</time>
   <energy>
    <i name="alphaZ">     -0.61330648 </i>
    <i name="ewald">   -293.42683892 </i>
    <i name="hartreedc">     -0.42200802 </i>
    <i name="XCdc">   -105.62210222 </i>
    <i name="pawpsdc">    142.63640024 </i>
    <i name="pawaedc">    -14.42330091 </i>
    <i name="eentropy">     -0.00287893 </i>
    <i name="bandstr">     64.81521707 </i>
    <i name="atom">    214.76337790 </i>
    <i name="e_fr_energy">      7.70455975 </i>
    <i name="e_wo_entrp">      7.70743867 </i>
    <i name="e_0_energy">      7.70551939 </i>
   </energy>
  </scstep>
  <scstep>
   <time name="dav">    1.55    1.55</time>
   <time name="total">    1.56    1.56</time>
   <energy>
    <i name="e_fr_energy">    -14.18557023 </i>
    <i name="e_wo_entrp">    -14.18496364 </i>
    <i name="e_0_energy">    -14.18536803 </i>
   </energy>
  </scstep>
  <scstep>
   <time name="dav">    1.49    1.49</time>
   <time name="total">    1.50    1.50</time>
   <energy>
    <i name="e_fr_energy">    -14.87825805 </i>
    <i name="e_wo_entrp">    -14.87676059 </i>
    <i name="e_0_energy">    -14.87775890 </i>
   </energy>
  </scstep>
  <scstep>
   <time name="dav">    1.50    1.50</time>
   <time name="total">    1.50    1.50</time>
   <energy>
    <i name="e_fr_energy">    -14.88257289 </i>
    <i name="e_wo_entrp">    -14.88109051 </i>
    <i name="e_0_energy">    -14.88207876 </i>
   </energy>
  </scstep>
  <scstep>
   <time name="dav">    1.53    1.54</time>
   <time name="total">    1.65    1.66</time>
   <energy>
    <i name="e_fr_energy">    -14.88262088 </i>
    <i name="e_wo_entrp">    -14.88113858 </i>
    <i name="e_0_energy">    -14.88212678 </i>
   </energy>
  </scstep>
  <scstep>
   <time name="dav">    1.47    1.47</time>
   <time name="total">    1.59    1.59</time>
   <energy>
    <i name="e_fr_energy">    -14.83547141 </i>
    <i name="e_wo_entrp">    -14.83370098 </i>
    <i name="e_0_energy">    -14.83488126 </i>
   </energy>
  </scstep>
  <scstep>
   <time name="dav">    1.38    1.38</time>
   <time name="total">    1.50    1.50</time>
   <energy>
    <i name="e_fr_energy">    -14.80408512 </i>
    <i name="e_wo_entrp">    -14.80188385 </i>
    <i name="e_0_energy">    -14.80335136 </i>
   </energy>
  </scstep>
  <scstep>
   <time name="dav">    1.64    1.64</time>
   <time name="total">    1.76    1.76</time>
   <energy>
    <i name="e_fr_energy">    -14.80412507 </i>
    <i name="e_wo_entrp">    -14.80192877 </i>
    <i name="e_0_energy">    -14.80339297 </i>
   </energy>
  </scstep>
  <scstep>
   <time name="dav">    1.53    1.53</time>
   <time name="total">    1.65    1.65</time>
   <energy>
    <i name="e_fr_energy">    -14.80413183 </i>
    <i name="e_wo_entrp">    -14.80193888 </i>
    <i name="e_0_energy">    -14.80340085 </i>
   </energy>
  </scstep>
  <scstep>
   <time name="dav">    1.36    1.36</time>
   <time name="total">    1.48    1.48</time>
   <energy>
    <i name="e_fr_energy">    -14.80413072 </i>
    <i name="e_wo_entrp">    -14.80193778 </i>
    <i name="e_0_energy">    -14.80339974 </i>
   </energy>
  </scstep>
  <scstep>
   <time name="dav">    1.23    1.23</time>
   <time name="total">    1.24    1.24</time>
   <energy>
    <i name="alphaZ">     -0.61330648 </i>
    <i name="ewald">   -293.42683892 </i>
    <i name="hartreedc">     -0.41777276 </i>
    <i name="XCdc">   -105.17741345 </i>
    <i name="pawpsdc">    143.00763682 </i>
    <i name="pawaedc">    -14.86084025 </i>
    <i name="eentropy">     -0.00219304 </i>
    <i name="bandstr">     41.92321957 </i>
    <i name="atom">    214.76337790 </i>
    <i name="e_fr_energy">    -14.80413061 </i>
    <i name="e_wo_entrp">    -14.80193758 </i>
    <i name="e_0_energy">    -14.80339960 </i>
   </energy>
  </scstep>
  <structure>
   <crystal>
    <varray name="basis" >
     <v>       4.05000000       0.00000000       0.00000000 </v>
     <v>       0.00000000       4.05000000       0.00000000 </v>
     <v>       0.00000000       0.00000000       4.05000000 </v>
    </varray>
    <i name="volume">     66.43012500 </i>
    <varray name="rec_basis" >
     <v>       0.24691358       0.00000000       0.00000000 </v>
     <v>       0.00000000       0.24691358       0.00000000 </v>
     <v>       0.00000000       0.00000000       0.24691358 </v>
    </varray>
   </crystal>
   <varray name="positions" >
    <v>       0.00000000       0.00000000       0.00000000 </v>
    <v>       0.00000000       0.50000000       0.50000000 </v>
    <v>       0.50000000       0.00000000       0.50000000 </v>
    <v>       0.50000000       0.50000000       0.00000000 </v>
   </varray>
  </structure>
  <varray name="forces" >
   <v>       0.00000001       0.00000000       0.00000002 </v>
   <v>      -0.00000001      -0.00000001      -0.00000001 </v>
   <v>      -0.00000000       0.00000001      -0.00000001 </v>
   <v>       0.00000000       0.00000000       0.00000001 </v>
  </varray>
  <varray name="stress" >
   <v>      -4.00775030      -0.00000046      -0.00000050 </v>
   <v>      -0.00000048      -4.00775072      -0.00000037 </v>
   <v>      -0.00000050      -0.00000037      -4.00775128 </v>
  </varray>
  <energy>
   <i name="e_fr_energy">    -14.80413061 </i>
   <i name="e_wo_entrp">    -14.80339960 </i>
   <i name="e_0_energy">     -0.00219304 </i>
  </energy>
  <time name="totalsc">   18.20   18.25</time>
 </calculation>
 <calculation>
  <scstep>
   <time name="dav">    1.50    1.51</time>
   <time name="total">    1.62    1.63</time>
   <energy>
    <i name="alphaZ">     -0.61404456 </i>
    <i name="ewald">   -293.54449933 </i>
    <i name="hartreedc">     -0.41794210 </i>
    <i name="XCdc">   -105.16992645 </i>
    <i name="pawpsdc">    143.00796113 </i>
    <i name="pawaedc">    -14.86117285 </i>
    <i name="eentropy">     -0.00220804 </i>
    <i name="bandstr">     42.03414402 </i>
    <i name="atom">    214.76337790 </i>
    <i name="e_fr_energy">    -14.80431028 </i>
    <i name="e_wo_entrp">    -14.80210224 </i>
    <i name="e_0_energy">    -14.80357427 </i>
   </energy>
  </scstep>
  <scstep>
   <time name="dav">    1.47    1.47</time>
   <time name="total">    1.59    1.59</time>
   <energy>
    <i name="e_fr_energy">    -14.80430960 </i>
    <i name="e_wo_entrp">    -14.80210023 </i>
    <i name="e_0_energy">    -14.80357315 </i>
   </energy>
  </scstep>
  <scstep>
   <time name="dav">    1.15    1.15</time>
   <time name="total">    1.27    1.27</time>
   <energy>
    <i name="e_fr_energy">    -14.80430933 </i>
    <i name="e_wo_entrp">    -14.80209770 </i>
    <i name="e_0_energy">    -14.80357212 </i>
   </energy>
  </scstep>
  <scstep>
   <time name="dav">    1.04    1.04</time>
   <time name="total">    1.16    1.16</time>
   <energy>
    <i name="e_fr_energy">    -14.80430935 </i>
    <i name="e_wo_entrp">    -14.80209773 </i>
    <i name="e_0_energy">    -14.80357215 </i>
   </energy>
  </scstep>
  <scstep>
   <time name="dav">    1.09    1.09</time>
   <time name="total">    1.21    1.21</time>
   <energy>
    <i name="e_fr_energy">    -14.80430937 </i>
    <i name="e_wo_entrp">    -14.80209774 </i>
    <i name="e_0_energy">    -14.80357216 </i>
   </energy>
  </scstep>
  <scstep>
   <time name="dav">    1.07    1.07</time>
   <time name="total">    1.08    1.08</time>
   <energy>
    <i name="alphaZ">     -0.61404456 </i>
    <i name="ewald">   -293.54449933 </i>
    <i name="hartreedc">     -0.41829978 </i>
    <i name="XCdc">   -105.16781356 </i>
    <i name="pawpsdc">    143.02195908 </i>
    <i name="pawaedc">    -14.87587616 </i>
    <i name="eentropy">     -0.00221162 </i>
    <i name="bandstr">     42.03309864 </i>
    <i name="atom">    214.76337790 </i>
    <i name="e_fr_energy">    -14.80430937 </i>
    <i name="e_wo_entrp">    -14.80209776 </i>
    <i name="e_0_energy">    -14.80357217 </i>
   </energy>
  </scstep>
  <structure>
   <crystal>
    <varray name="basis" >
     <v>       4.04837665      -0.00000000      -0.00000000 </v>
     <v>      -0.00000000       4.04837665      -0.00000000 </v>
     <v>      -0.00000000      -0.00000000       4.04837665 </v>
    </varray>
    <i name="volume">     66.35027616 </i>
    <varray name="rec_basis" >
     <v>       0.24701259       0.00000000       0.00000000 </v>
     <v>       0.00000000       0.24701259       0.00000000 </v>
     <v>       0.00000000       0.00000000       0.24701259 </v>
    </varray>
   </crystal>
   <varray name="positions" >
    <v>       0.00000000       0.00000000       0.00000000 </v>
    <v>      -0.00000000       0.50000000       0.50000000 </v>
    <v>       0.50000000       0.00000000       0.50000000 </v>
    <v>       0.50000000       0.50000000       0.00000000 </v>
   </varray>
  </structure>
  <varray name="forces" >
   <v>      -0.00000000      -0.00000000      -0.00000000 </v>
   <v>       0.00000000       0.00000000       0.00000000 </v>
   <v>      -0.00000000       0.00000000       0.00000000 </v>
   <v>      -0.00000000      -0.00000000      -0.00000000 </v>
  </varray>
  <varray name="stress" >
   <v>      -3.13357066      -0.00000006      -0.00000001 </v>
   <v>      -0.00000006      -3.13357043       0.00000011 </v>
   <v>      -0.00000001       0.00000011      -3.13357014 </v>
  </varray>
  <energy>
   <i name="e_fr_energy">    -14.80430937 </i>
   <i name="e_wo_entrp">    -14.80357217 </i>
   <i name="e_0_energy">     -0.00221162 </i>
  </energy>
  <time name="totalsc">    9.45    9.46</time>
 </calculation>
 <calculation>
  <scstep>
   <time name="dav">    1.45    1.45</time>
   <time name="total">    1.58    1.58</time>
   <energy>
    <i name="alphaZ">     -0.61626592 </i>
    <i name="ewald">   -293.89804738 </i>
    <i name="hartreedc">     -0.41880374 </i>
    <i name="XCdc">   -105.14530928 </i>
    <i name="pawpsdc">    143.02191278 </i>
    <i name="pawaedc">    -14.87582970 </i>
    <i name="eentropy">     -0.00226095 </i>
    <i name="bandstr">     42.36663213 </i>
    <i name="atom">    214.76337790 </i>
    <i name="e_fr_energy">    -14.80459416 </i>
    <i name="e_wo_entrp">    -14.80233321 </i>
    <i name="e_0_energy">    -14.80384051 </i>
   </energy>
  </scstep>
  <scstep>
   <time name="dav">    1.39    1.39</time>
   <time name="total">    1.52    1.52</time>
   <energy>
    <i name="e_fr_energy">    -14.80458643 </i>
    <i name="e_wo_entrp">    -14.80232145 </i>
    <i name="e_0_energy">    -14.80383144 </i>
   </energy>
  </scstep>
  <scstep>
   <time name="dav">    1.44    1.44</time>
   <time name="total">    1.57    1.57</time>
   <energy>
    <i name="e_fr_energy">    -14.80458126 </i>
    <i name="e_wo_entrp">    -14.80230936 </i>
    <i name="e_0_energy">    -14.80382396 </i>
   </energy>
  </scstep>
  <scstep>
   <time name="dav">    1.03    1.03</time>
   <time name="total">    1.16    1.16</time>
   <energy>
    <i name="e_fr_energy">    -14.80458131 </i>
    <i name="e_wo_entrp">    -14.80230944 </i>
    <i name="e_0_energy">    -14.80382402 </i>
   </energy>
  </scstep>
  <scstep>
   <time name="dav">    1.04    1.04</time>
   <time name="total">    1.17    1.17</time>
   <energy>
    <i name="e_fr_energy">    -14.80458137 </i>
    <i name="e_wo_entrp">    -14.80230956 </i>
    <i name="e_0_energy">    -14.80382410 </i>
   </energy>
  </scstep>
  <scstep>
   <time name="dav">    1.04    1.04</time>
   <time name="total">    1.05    1.05</time>
   <energy>
    <i name="alphaZ">     -0.61626592 </i>
    <i name="ewald">   -293.89804738 </i>
    <i name="hartreedc">     -0.41994734 </i>
    <i name="XCdc">   -105.13895331 </i>
    <i name="pawpsdc">    143.06373814 </i>
    <i name="pawaedc">    -14.91978334 </i>
    <i name="eentropy">     -0.00227182 </i>
    <i name="bandstr">     42.36357170 </i>
    <i name="atom">    214.76337790 </i>
    <i name="e_fr_energy">    -14.80458137 </i>
    <i name="e_wo_entrp">    -14.80230955 </i>
    <i name="e_0_energy">    -14.80382410 </i>
   </energy>
  </scstep>
  <structure>
   <crystal>
    <varray name="basis" >
     <v>       4.04350661      -0.00000000      -0.00000000 </v>
     <v>      -0.00000000       4.04350661      -0.00000000 </v>
     <v>      -0.00000000      -0.00000000       4.04350661 </v>
    </varray>
    <i name="volume">     66.11111359 </i>
    <varray name="rec_basis" >
     <v>       0.24731009       0.00000000       0.00000000 </v>
     <v>       0.00000000       0.24731009       0.00000000 </v>
     <v>       0.00000000       0.00000000       0.24731009 </v>
    </varray>
   </crystal>
   <varray name="positions" >
    <v>       0.00000000       0.00000000       0.00000000 </v>
    <v>      -0.00000000       0.50000000       0.50000000 </v>
    <v>       0.50000000       0.00000000       0.50000000 </v>
    <v>       0.50000000       0.50000000       0.00000000 </v>
   </varray>
  </structure>
  <varray name="forces" >
   <v>      -0.00000000       0.00000000      -0.00000001 </v>
   <v>      -0.00000000      -0.00000000       0.00000000 </v>
   <v>       0.00000000      -0.00000000       0.00000000 </v>
   <v>       0.00000000       0.00000000       0.00000000 </v>
  </varray>
  <varray name="stress" >
   <v>      -0.47071302       0.00000028       0.00000010 </v>
   <v>       0.00000029      -0.47071316       0.00000024 </v>
   <v>       0.00000011       0.00000024      -0.47071285 </v>
  </varray>
  <energy>
   <i name="e_fr_energy">    -14.80458137 </i>
   <i name="e_wo_entrp">    -14.80382410 </i>
   <i name="e_0_energy">     -0.00227182 </i>
  </energy>
  <time name="totalsc">    9.38    9.38</time>
  <eigenvalues>
   <array>
    <dimension dim="1">band</dimension>
    <dimension dim="2">kpoint</dimension>
    <dimension dim="3">spin</dimension>
    <field>eigene</field>
    <field>occ</field>
    <set>
     <set comment="spin 1">
      <set comment="kpoint 1">
       <r>   -3.0595    1.0000 </r>
       <r>    4.5202    1.0000 </r>
       <r>    4.5202    1.0000 </r>
       <r>    4.5202    1.0000 </r>
       <r>    7.0565    1.0000 </r>
       <r>    7.0565    1.0000 </r>
       <r>    7.0565    1.0000 </r>
       <r>   11.7708   -0.0000 </r>
       <r>   11.7708   -0.0000 </r>
       <r>   11.7708   -0.0000 </r>
       <r>   13.6053    0.0000 </r>
       <r>   13.6053    0.0000 </r>
       <r>   13.6053    0.0000 </r>
       <r>   14.5402    0.0000 </r>
       <r>   14.5402    0.0000 </r>
       <r>   14.5402    0.0000 </r>
      </set>
      <set comment="kpoint 2">
       <r>   -2.7773    1.0000 </r>
       <r>    2.7362    1.0000 </r>
       <r>    4.7843    1.0000 </r>
       <r>    4.7843    1.0000 </r>
       <r>    7.3216    1.0001 </r>
       <r>    7.3216    1.0001 </r>
       <r>    9.3282   -0.0000 </r>
       <r>   10.0390   -0.0000 </r>
       <r>   10.0390   -0.0000 </r>
       <r>   12.0325   -0.0000 </r>
       <r>   12.5245   -0.0000 </r>
       <r>   12.5245   -0.0000 </r>
       <r>   13.8453    0.0000 </r>
       <r>   14.8042    0.0000 </r>
       <r>   16.4944    0.0000 </r>
       <r>   16.4944    0.0000 </r>
      </set>
      <set comment="kpoint 3">
       <r>   -2.2145    1.0000 </r>
       <r>    1.1130    1.0000 </r>
       <r>    5.3113    1.0000 </r>
       <r>    5.3113    1.0000 </r>
       <r>    7.8201    0.8709 </r>
       <r>    7.8201    0.8709 </r>
       <r>    8.5158   -0.0001 </r>
       <r>    8.5158   -0.0001 </r>
       <r>   11.0939   -0.0000 </r>
       <r>   11.0939   -0.0000 </r>
       <r>   11.9144   -0.0000 </r>
       <r>   12.5641   -0.0000 </r>
       <r>   14.3257    0.0000 </r>
       <r>   15.3307    0.0000 </r>
       <r>   15.6205    0.0000 </r>
       <r>   17.2042    0.0000 </r>
      </set>
      <set comment="kpoint 4">
       <r>   -1.3745    1.0000 </r>
       <r>   -0.2627    1.0000 </r>
       <r>    6.0961    1.0000 </r>
       <r>    6.0961    1.0000 </r>
       <r>    7.1507    1.0000 </r>
       <r>    7.1507    1.0000 </r>
       <r>    8.6237   -0.0000 </r>
       <r>    8.6237   -0.0000 </r>
       <r>    9.8738   -0.0000 </r>
       <r>    9.8738   -0.0000 </r>
       <r>   13.3169   -0.0000 </r>
       <r>   14.3488    0.0000 </r>
       <r>   14.7652    0.0000 </r>
       <r>   15.0466    0.0000 </r>
       <r>   16.0074    0.0000 </r>
       <r>   16.1174    0.0000 </r>
      </set>
      <set comment="kpoint 5">
       <r>   -1.3745    1.0000 </r>
       <r>   -0.2627    1.0000 </r>
       <r>    6.0961    1.0000 </r>
       <r>    6.0961    1.0000 </r>
       <r>    7.1507    1.0000 </r>
       <r>    7.1507    1.0000 </r>
       <r>    8.6237   -0.0000 </r>
       <r>    8.6237   -0.0000 </r>
       <r>    9.8738   -0.0000 </r>
       <r>    9.8738   -0.0000 </r>
       <r>   13.3169   -0.0000 </r>
       <r>   14.3488    0.0000 </r>
       <r>   14.7652    0.0000 </r>
       <r>   15.0466    0.0000 </r>
       <r>   16.0074    0.0000 </r>
       <r>   16.1174    0.0000 </r>
      </set>
      <set comment="kpoint 6">
       <r>   -2.2145    1.0000 </r>
       <r>    1.1130    1.0000 </r>
       <r>    5.3113    1.0000 </r>
       <r>    5.3113    1.0000 </r>
       <r>    7.8201    0.8709 </r>
       <r>    7.8201    0.8709 </r>
       <r>    8.5158   -0.0001 </r>
       <r>    8.5158   -0.0001 </r>
       <r>   11.0939   -0.0000 </r>
       <r>   11.0939   -0.0000 </r>
       <r>   11.9144   -0.0000 </r>
       <r>   12.5641   -0.0000 </r>
       <r>   14.3257    0.0000 </r>
       <r>   15.3307    0.0000 </r>
       <r>   15.6205    0.0000 </r>
       <r>   17.2042    0.0000 </r>
      </set>
      <set comment="kpoint 7">
       <r>   -2.7773    1.0000 </r>
       <r>    2.7362    1.0000 </r>
       <r>    4.7843    1.0000 </r>
       <r>    4.7843    1.0000 </r>
       <r>    7.3216    1.0001 </r>
       <r>    7.3216    1.0001 </r>
       <r>    9.3282   -0.0000 </r>
       <r>   10.0390   -0.0000 </r>
       <r>   10.0390   -0.0000 </r>
       <r>   12.0325   -0.0000 </r>
       <r>   12.5245   -0.0000 </r>
       <r>   12.5245   -0.0000 </r>
       <r>   13.8453    0.0000 </r>
       <r>   14.8042    0.0000 </r>
       <r>   16.4944    0.0000 </r>
       <r>   16.4944    0.0000 </r>
      </set>
      <set comment="kpoint 8">
       <r>   -3.0595    1.0000 </r>
       <r>    4.5202    1.0000 </r>
       <r>    4.5202    1.0000 </r>
       <r>    4.5202    1.0000 </r>
       <r>    7.0565    1.0000 </r>
       <r>    7.0565    1.0000 </r>
       <r>    7.0565    1.0000 </r>
       <r>   11.7708   -0.0000 </r>
       <r>   11.7708   -0.0000 </r>
       <r>   11.7708   -0.0000 </r>
       <r>   13.6053    0.0000 </r>
       <r>   13.6053    0.0000 </r>
       <r>   13.6053    0.0000 </r>
       <r>   14.5402    0.0000 </r>
       <r>   14.5402    0.0000 </r>
       <r>   14.5402    0.0000 </r>
      </set>
      <set comment="kpoint 9">
       <r>   -2.7773    1.0000 </r>
       <r>    2.7362    1.0000 </r>
       <r>    4.7843    1.0000 </r>
       <r>    4.7843    1.0000 </r>
       <r>    7.3216    1.0001 </r>
       <r>    7.3216    1.0001 </r>
       <r>    9.3282   -0.0000 </r>
       <r>   10.0390   -0.0000 </r>
       <r>   10.0390   -0.0000 </r>
       <r>   12.0325   -0.0000 </r>
       <r>   12.5245   -0.0000 </r>
       <r>   12.5245   -0.0000 </r>
       <r>   13.8453    0.0000 </r>
       <r>   14.8042    0.0000 </r>
       <r>   16.4944    0.0000 </r>
       <r>   16.4944    0.0000 </r>
      </set>
      <set comment="kpoint 10">
       <r>   -2.4956    1.0000 </r>
       <r>    3.0066    1.0000 </r>
       <r>    3.0066    1.0000 </r>
       <r>    5.0477    1.0000 </r>
       <r>    7.5520    1.0129 </r>
       <r>    8.3850   -0.0025 </r>
       <r>    9.5648   -0.0000 </r>
       <r>    9.5648   -0.0000 </r>
       <r>   10.3191   -0.0000 </r>
       <r>   10.3191   -0.0000 </r>
       <r>   12.7807   -0.0000 </r>
       <r>   12.7807   -0.0000 </r>
       <r>   14.0892    0.0000 </r>
       <r>   15.4271    0.0000 </r>
       <r>   15.6372    0.0000 </r>
       <r>   16.7514    0.0000 </r>
      </set>
      <set comment="kpoint 11">
       <r>   -1.9340    1.0000 </r>
       <r>    1.3870    1.0000 </r>
       <r>    3.5459    1.0000 </r>
       <r>    5.5701    1.0000 </r>
       <r>    6.7358    1.0000 </r>
       <r>    8.1811   -0.0346 </r>
       <r>    8.7196   -0.0000 </r>
       <r>   10.0958   -0.0000 </r>
       <r>   10.7980   -0.0000 </r>
       <r>   11.3873   -0.0000 </r>
       <r>   12.1773   -0.0000 </r>
       <r>   13.2081   -0.0000 </r>
       <r>   13.3063   -0.0000 </r>
       <r>   13.9091    0.0000 </r>
       <r>   16.2081    0.0000 </r>
       <r>   17.2623    0.0000 </r>
      </set>
      <set comment="kpoint 12">
       <r>   -1.0957    1.0000 </r>
       <r>    0.0141    1.0000 </r>
       <r>    4.3504    1.0000 </r>
       <r>    5.4091    1.0000 </r>
       <r>    6.3801    1.0000 </r>
       <r>    7.4220    1.0012 </r>
       <r>    8.9550   -0.0000 </r>
       <r>    9.9463   -0.0000 </r>
       <r>   11.0331   -0.0000 </r>
       <r>   11.5864   -0.0000 </r>
       <r>   11.9988   -0.0000 </r>
       <r>   12.6238   -0.0000 </r>
       <r>   13.9817    0.0000 </r>
       <r>   14.9939    0.0000 </r>
       <r>   15.0627    0.0000 </r>
       <r>   18.0306    0.0000 </r>
      </set>
      <set comment="kpoint 13">
       <r>   -1.0957    1.0000 </r>
       <r>    0.0141    1.0000 </r>
       <r>    4.3504    1.0000 </r>
       <r>    5.4091    1.0000 </r>
       <r>    6.3801    1.0000 </r>
       <r>    7.4220    1.0012 </r>
       <r>    8.9550   -0.0000 </r>
       <r>    9.9463   -0.0000 </r>
       <r>   11.0331   -0.0000 </r>
       <r>   11.5864   -0.0000 </r>
       <r>   11.9988   -0.0000 </r>
       <r>   12.6238   -0.0000 </r>
       <r>   13.9817    0.0000 </r>
       <r>   14.9939    0.0000 </r>
       <r>   15.0627    0.0000 </r>
       <r>   18.0300    0.0000 </r>
      </set>
      <set comment="kpoint 14">
       <r>   -1.9340    1.0000 </r>
       <r>    1.3870    1.0000 </r>
       <r>    3.5459    1.0000 </r>
       <r>    5.5701    1.0000 </r>
       <r>    6.7358    1.0000 </r>
       <r>    8.1811   -0.0346 </r>
       <r>    8.7196   -0.0000 </r>
       <r>   10.0958   -0.0000 </r>
       <r>   10.7980   -0.0000 </r>
       <r>   11.3873   -0.0000 </r>
       <r>   12.1773   -0.0000 </r>
       <r>   13.2081   -0.0000 </r>
       <r>   13.3063   -0.0000 </r>
       <r>   13.9091    0.0000 </r>
       <r>   16.2081    0.0000 </r>
       <r>   17.2623    0.0000 </r>
      </set>
      <set comment="kpoint 15">
       <r>   -2.4956    1.0000 </r>
       <r>    3.0066    1.0000 </r>
       <r>    3.0066    1.0000 </r>
       <r>    5.0477    1.0000 </r>
       <r>    7.5520    1.0129 </r>
       <r>    8.3850   -0.0025 </r>
       <r>    9.5648   -0.0000 </r>
       <r>    9.5648   -0.0000 </r>
       <r>   10.3191   -0.0000 </r>
       <r>   10.3191   -0.0000 </r>
       <r>   12.7807   -0.0000 </r>
       <r>   12.7807   -0.0000 </r>
       <r>   14.0892    0.0000 </r>
       <r>   15.4271    0.0000 </r>
       <r>   15.6372    0.0000 </r>
       <r>   16.7514    0.0000 </r>
      </set>
      <set comment="kpoint 16">
       <r>   -2.7773    1.0000 </r>
       <r>    2.7362    1.0000 </r>
       <r>    4.7843    1.0000 </r>
       <r>    4.7843    1.0000 </r>
       <r>    7.3216    1.0001 </r>
       <r>    7.3216    1.0001 </r>
       <r>    9.3282   -0.0000 </r>
       <r>   10.0390   -0.0000 </r>
       <r>   10.0390   -0.0000 </r>
       <r>   12.0325   -0.0000 </r>
       <r>   12.5245   -0.0000 </r>
       <r>   12.5245   -0.0000 </r>
       <r>   13.8453    0.0000 </r>
       <r>   14.8042    0.0000 </r>
       <r>   16.4944    0.0000 </r>
       <r>   16.4944    0.0000 </r>
      </set>
      <set comment="kpoint 17">
       <r>   -2.2145    1.0000 </r>
       <r>    1.1130    1.0000 </r>
       <r>    5.3113    1.0000 </r>
       <r>    5.3113    1.0000 </r>
       <r>    7.8201    0.8709 </r>
       <r>    7.8201    0.8709 </r>
       <r>    8.5158   -0.0001 </r>
       <r>    8.5158   -0.0001 </r>
       <r>   11.0939   -0.0000 </r>
       <r>   11.0939   -0.0000 </r>
       <r>   11.9144   -0.0000 </r>
       <r>   12.5641   -0.0000 </r>
       <r>   14.3257    0.0000 </r>
       <r>   15.3307    0.0000 </r>
       <r>   15.6205    0.0000 </r>
       <r>   17.2042    0.0000 </r>
      </set>
      <set comment="kpoint 18">
       <r>   -1.9340    1.0000 </r>
       <r>    1.3870    1.0000 </r>
       <r>    3.5459    1.0000 </r>
       <r>    5.5701    1.0000 </r>
       <r>    6.7358    1.0000 </r>
       <r>    8.1811   -0.0346 </r>
       <r>    8.7196   -0.0000 </r>
       <r>   10.0958   -0.0000 </r>
       <r>   10.7980   -0.0000 </r>
       <r>   11.3873   -0.0000 </r>
       <r>   12.1773   -0.0000 </r>
       <r>   13.2081   -0.0000 </r>
       <r>   13.3063   -0.0000 </r>
       <r>   13.9091    0.0000 </r>
       <r>   16.2081    0.0000 </r>
       <r>   17.2623    0.0000 </r>
      </set>
      <set comment="kpoint 19">
       <r>   -1.3745    1.0000 </r>
       <r>    1.9335    1.0000 </r>
       <r>    1.9335    1.0000 </r>
       <r>    5.1557    1.0000 </r>
       <r>    6.1180    1.0000 </r>
       <r>    8.7028   -0.0000 </r>
       <r>    9.2524   -0.0000 </r>
       <r>    9.2524   -0.0000 </r>
       <r>   11.7623   -0.0000 </r>
       <r>   11.7623   -0.0000 </r>
       <r>   12.3749   -0.0000 </r>
       <r>   12.8056   -0.0000 </r>
       <r>   12.8056   -0.0000 </r>
       <r>   14.8289    0.0000 </r>
       <r>   15.0585    0.0000 </r>
       <r>   16.8127    0.0000 </r>
      </set>
      <set comment="kpoint 20">
       <r>   -0.5395    1.0000 </r>
       <r>    0.5660    1.0000 </r>
       <r>    2.7492    1.0000 </r>
       <r>    3.8284    1.0000 </r>
       <r>    6.9000    1.0000 </r>
       <r>    7.9481    0.3841 </r>
       <r>    9.4948   -0.0000 </r>
       <r>   10.0382   -0.0000 </r>
       <r>   10.5327   -0.0000 </r>
       <r>   11.0804   -0.0000 </r>
       <r>   12.5809   -0.0000 </r>
       <r>   13.5196    0.0000 </r>
       <r>   13.5985    0.0000 </r>
       <r>   14.4632    0.0000 </r>
       <r>   15.5442    0.0000 </r>
       <r>   18.4413    0.0000 </r>
      </set>
      <set comment="kpoint 21">
       <r>   -0.5395    1.0000 </r>
       <r>    0.5660    1.0000 </r>
       <r>    2.7492    1.0000 </r>
       <r>    3.8284    1.0000 </r>
       <r>    6.9000    1.0000 </r>
       <r>    7.9481    0.3841 </r>
       <r>    9.4948   -0.0000 </r>
       <r>   10.0382   -0.0000 </r>
       <r>   10.5327   -0.0000 </r>
       <r>   11.0804   -0.0000 </r>
       <r>   12.5809   -0.0000 </r>
       <r>   13.5196    0.0000 </r>
       <r>   13.5985    0.0000 </r>
       <r>   14.4632    0.0000 </r>
       <r>   15.5442    0.0000 </r>
       <r>   18.4413    0.0000 </r>
      </set>
      <set comment="kpoint 22">
       <r>   -1.3745    1.0000 </r>
       <r>    1.9335    1.0000 </r>
       <r>    1.9335    1.0000 </r>
       <r>    5.1557    1.0000 </r>
       <r>    6.1180    1.0000 </r>
       <r>    8.7028   -0.0000 </r>
       <r>    9.2524   -0.0000 </r>
       <r>    9.2524   -0.0000 </r>
       <r>   11.7623   -0.0000 </r>
       <r>   11.7623   -0.0000 </r>
       <r>   12.3749   -0.0000 </r>
       <r>   12.8056   -0.0000 </r>
       <r>   12.8056   -0.0000 </r>
       <r>   14.8289    0.0000 </r>
       <r>   15.0585    0.0000 </r>
       <r>   16.8127    0.0000 </r>
      </set>
      <set comment="kpoint 23">
       <r>   -1.9340    1.0000 </r>
       <r>    1.3870    1.0000 </r>
       <r>    3.5459    1.0000 </r>
       <r>    5.5701    1.0000 </r>
       <r>    6.7358    1.0000 </r>
       <r>    8.1811   -0.0346 </r>
       <r>    8.7196   -0.0000 </r>
       <r>   10.0958   -0.0000 </r>
       <r>   10.7980   -0.0000 </r>
       <r>   11.3873   -0.0000 </r>
       <r>   12.1773   -0.0000 </r>
       <r>   13.2081   -0.0000 </r>
       <r>   13.3063   -0.0000 </r>
       <r>   13.9091    0.0000 </r>
       <r>   16.2081    0.0000 </r>
       <r>   17.2623    0.0000 </r>
      </set>
      <set comment="kpoint 24">
       <r>   -2.2145    1.0000 </r>
       <r>    1.1130    1.0000 </r>
       <r>    5.3113    1.0000 </r>
       <r>    5.3113    1.0000 </r>
       <r>    7.8201    0.8709 </r>
       <r>    7.8201    0.8709 </r>
       <r>    8.5158   -0.0001 </r>
       <r>    8.5158   -0.0001 </r>
       <r>   11.0939   -0.0000 </r>
       <r>   11.0939   -0.0000 </r>
       <r>   11.9144   -0.0000 </r>
       <r>   12.5641   -0.0000 </r>
       <r>   14.3257    0.0000 </r>
       <r>   15.3307    0.0000 </r>
       <r>   15.6205    0.0000 </r>
       <r>   17.2042    0.0000 </r>
      </set>
      <set comment="kpoint 25">
       <r>   -1.3745    1.0000 </r>
       <r>   -0.2627    1.0000 </r>
       <r>    6.0961    1.0000 </r>
       <r>    6.0961    1.0000 </r>
       <r>    7.1507    1.0000 </r>
       <r>    7.1507    1.0000 </r>
       <r>    8.6237   -0.0000 </r>
       <r>    8.6237   -0.0000 </r>
       <r>    9.8738   -0.0000 </r>
       <r>    9.8738   -0.0000 </r>
       <r>   13.3169   -0.0000 </r>
       <r>   14.3488    0.0000 </r>
       <r>   14.7652    0.0000 </r>
       <r>   15.0466    0.0000 </r>
       <r>   16.0074    0.0000 </r>
       <r>   16.1174    0.0000 </r>
      </set>
      <set comment="kpoint 26">
       <r>   -1.0957    1.0000 </r>
       <r>    0.0141    1.0000 </r>
       <r>    4.3504    1.0000 </r>
       <r>    5.4091    1.0000 </r>
       <r>    6.3801    1.0000 </r>
       <r>    7.4220    1.0012 </r>
       <r>    8.9550   -0.0000 </r>
       <r>    9.9463   -0.0000 </r>
       <r>   11.0331   -0.0000 </r>
       <r>   11.5864   -0.0000 </r>
       <r>   11.9988   -0.0000 </r>
       <r>   12.6238   -0.0000 </r>
       <r>   13.9817    0.0000 </r>
       <r>   14.9939    0.0000 </r>
       <r>   15.0627    0.0000 </r>
       <r>   18.0215    0.0000 </r>
      </set>
      <set comment="kpoint 27">
       <r>   -0.5395    1.0000 </r>
       <r>    0.5660    1.0000 </r>
       <r>    2.7492    1.0000 </r>
       <r>    3.8284    1.0000 </r>
       <r>    6.9000    1.0000 </r>
       <r>    7.9481    0.3841 </r>
       <r>    9.4948   -0.0000 </r>
       <r>   10.0382   -0.0000 </r>
       <r>   10.5327   -0.0000 </r>
       <r>   11.0804   -0.0000 </r>
       <r>   12.5809   -0.0000 </r>
       <r>   13.5196    0.0000 </r>
       <r>   13.5985    0.0000 </r>
       <r>   14.4632    0.0000 </r>
       <r>   15.5442    0.0000 </r>
       <r>   18.4413    0.0000 </r>
      </set>
      <set comment="kpoint 28">
       <r>    0.2908    1.0000 </r>
       <r>    1.3898    1.0000 </r>
       <r>    1.3898    1.0000 </r>
       <r>    2.4803    1.0000 </r>
       <r>    7.6872    1.0349 </r>
       <r>    8.7347   -0.0000 </r>
       <r>    8.7347   -0.0000 </r>
       <r>    9.7802   -0.0000 </r>
       <r>   10.2870   -0.0000 </r>
       <r>   11.3238   -0.0000 </r>
       <r>   11.3238   -0.0000 </r>
       <r>   12.3521   -0.0000 </r>
       <r>   16.2173    0.0000 </r>
       <r>   16.2173    0.0000 </r>
       <r>   16.5138    0.0000 </r>
       <r>   18.4292    0.0000 </r>
      </set>
      <set comment="kpoint 29">
       <r>    0.2908    1.0000 </r>
       <r>    1.3898    1.0000 </r>
       <r>    1.3898    1.0000 </r>
       <r>    2.4803    1.0000 </r>
       <r>    7.6872    1.0349 </r>
       <r>    8.7347   -0.0000 </r>
       <r>    8.7347   -0.0000 </r>
       <r>    9.7802   -0.0000 </r>
       <r>   10.2870   -0.0000 </r>
       <r>   11.3238   -0.0000 </r>
       <r>   11.3238   -0.0000 </r>
       <r>   12.3521   -0.0000 </r>
       <r>   16.2173    0.0000 </r>
       <r>   16.2173    0.0000 </r>
       <r>   16.5138    0.0000 </r>
       <r>   18.4297    0.0000 </r>
      </set>
      <set comment="kpoint 30">
       <r>   -0.5395    1.0000 </r>
       <r>    0.5660    1.0000 </r>
       <r>    2.7492    1.0000 </r>
       <r>    3.8284    1.0000 </r>
       <r>    6.9000    1.0000 </r>
       <r>    7.9481    0.3841 </r>
       <r>    9.4948   -0.0000 </r>
       <r>   10.0382   -0.0000 </r>
       <r>   10.5327   -0.0000 </r>
       <r>   11.0804   -0.0000 </r>
       <r>   12.5809   -0.0000 </r>
       <r>   13.5196    0.0000 </r>
       <r>   13.5985    0.0000 </r>
       <r>   14.4632    0.0000 </r>
       <r>   15.5442    0.0000 </r>
       <r>   18.4413    0.0000 </r>
      </set>
      <set comment="kpoint 31">
       <r>   -1.0957    1.0000 </r>
       <r>    0.0141    1.0000 </r>
       <r>    4.3504    1.0000 </r>
       <r>    5.4091    1.0000 </r>
       <r>    6.3801    1.0000 </r>
       <r>    7.4220    1.0012 </r>
       <r>    8.9550   -0.0000 </r>
       <r>    9.9463   -0.0000 </r>
       <r>   11.0331   -0.0000 </r>
       <r>   11.5864   -0.0000 </r>
       <r>   11.9988   -0.0000 </r>
       <r>   12.6238   -0.0000 </r>
       <r>   13.9817    0.0000 </r>
       <r>   14.9939    0.0000 </r>
       <r>   15.0627    0.0000 </r>
       <r>   18.0210    0.0000 </r>
      </set>
      <set comment="kpoint 32">
       <r>   -1.3745    1.0000 </r>
       <r>   -0.2627    1.0000 </r>
       <r>    6.0961    1.0000 </r>
       <r>    6.0961    1.0000 </r>
       <r>    7.1507    1.0000 </r>
       <r>    7.1507    1.0000 </r>
       <r>    8.6237   -0.0000 </r>
       <r>    8.6237   -0.0000 </r>
       <r>    9.8738   -0.0000 </r>
       <r>    9.8738   -0.0000 </r>
       <r>   13.3169   -0.0000 </r>
       <r>   14.3488    0.0000 </r>
       <r>   14.7652    0.0000 </r>
       <r>   15.0466    0.0000 </r>
       <r>   16.0074    0.0000 </r>
       <r>   16.1174    0.0000 </r>
      </set>
      <set comment="kpoint 33">
       <r>   -1.3745    1.0000 </r>
       <r>   -0.2627    1.0000 </r>
       <r>    6.0961    1.0000 </r>
       <r>    6.0961    1.0000 </r>
       <r>    7.1507    1.0000 </r>
       <r>    7.1507    1.0000 </r>
       <r>    8.6237   -0.0000 </r>
       <r>    8.6237   -0.0000 </r>
       <r>    9.8738   -0.0000 </r>
       <r>    9.8738   -0.0000 </r>
       <r>   13.3169   -0.0000 </r>
       <r>   14.3488    0.0000 </r>
       <r>   14.7652    0.0000 </r>
       <r>   15.0466    0.0000 </r>
       <r>   16.0074    0.0000 </r>
       <r>   16.1174    0.0000 </r>
      </set>
      <set comment="kpoint 34">
       <r>   -1.0957    1.0000 </r>
       <r>    0.0141    1.0000 </r>
       <r>    4.3504    1.0000 </r>
       <r>    5.4091    1.0000 </r>
       <r>    6.3801    1.0000 </r>
       <r>    7.4220    1.0012 </r>
       <r>    8.9550   -0.0000 </r>
       <r>    9.9463   -0.0000 </r>
       <r>   11.0331   -0.0000 </r>
       <r>   11.5864   -0.0000 </r>
       <r>   11.9988   -0.0000 </r>
       <r>   12.6238   -0.0000 </r>
       <r>   13.9817    0.0000 </r>
       <r>   14.9939    0.0000 </r>
       <r>   15.0627    0.0000 </r>
       <r>   18.0190    0.0000 </r>
      </set>
      <set comment="kpoint 35">
       <r>   -0.5395    1.0000 </r>
       <r>    0.5660    1.0000 </r>
       <r>    2.7492    1.0000 </r>
       <r>    3.8284    1.0000 </r>
       <r>    6.9000    1.0000 </r>
       <r>    7.9481    0.3841 </r>
       <r>    9.4948   -0.0000 </r>
       <r>   10.0382   -0.0000 </r>
       <r>   10.5327   -0.0000 </r>
       <r>   11.0804   -0.0000 </r>
       <r>   12.5809   -0.0000 </r>
       <r>   13.5196    0.0000 </r>
       <r>   13.5985    0.0000 </r>
       <r>   14.4632    0.0000 </r>
       <r>   15.5442    0.0000 </r>
       <r>   18.4413    0.0000 </r>
      </set>
      <set comment="kpoint 36">
       <r>    0.2908    1.0000 </r>
       <r>    1.3898    1.0000 </r>
       <r>    1.3898    1.0000 </r>
       <r>    2.4803    1.0000 </r>
       <r>    7.6872    1.0349 </r>
       <r>    8.7347   -0.0000 </r>
       <r>    8.7347   -0.0000 </r>
       <r>    9.7802   -0.0000 </r>
       <r>   10.2870   -0.0000 </r>
       <r>   11.3238   -0.0000 </r>
       <r>   11.3238   -0.0000 </r>
       <r>   12.3521   -0.0000 </r>
       <r>   16.2173    0.0000 </r>
       <r>   16.2173    0.0000 </r>
       <r>   16.5138    0.0000 </r>
       <r>   18.4289    0.0000 </r>
      </set>
      <set comment="kpoint 37">
       <r>    0.2908    1.0000 </r>
       <r>    1.3898    1.0000 </r>
       <r>    1.3898    1.0000 </r>
       <r>    2.4803    1.0000 </r>
       <r>    7.6872    1.0349 </r>
       <r>    8.7347   -0.0000 </r>
       <r>    8.7347   -0.0000 </r>
       <r>    9.7802   -0.0000 </r>
       <r>   10.2870   -0.0000 </r>
       <r>   11.3238   -0.0000 </r>
       <r>   11.3238   -0.0000 </r>
       <r>   12.3521   -0.0000 </r>
       <r>   16.2173    0.0000 </r>
       <r>   16.2173    0.0000 </r>
       <r>   16.5138    0.0000 </r>
       <r>   18.4306    0.0000 </r>
      </set>
      <set comment="kpoint 38">
       <r>   -0.5395    1.0000 </r>
       <r>    0.5660    1.0000 </r>
       <r>    2.7492    1.0000 </r>
       <r>    3.8284    1.0000 </r>
       <r>    6.9000    1.0000 </r>
       <r>    7.9481    0.3841 </r>
       <r>    9.4948   -0.0000 </r>
       <r>   10.0382   -0.0000 </r>
       <r>   10.5327   -0.0000 </r>
       <r>   11.0804   -0.0000 </r>
       <r>   12.5809   -0.0000 </r>
       <r>   13.5196    0.0000 </r>
       <r>   13.5985    0.0000 </r>
       <r>   14.4632    0.0000 </r>
       <r>   15.5442    0.0000 </r>
       <r>   18.4413    0.0000 </r>
      </set>
      <set comment="kpoint 39">
       <r>   -1.0957    1.0000 </r>
       <r>    0.0141    1.0000 </r>
       <r>    4.3504    1.0000 </r>
       <r>    5.4091    1.0000 </r>
       <r>    6.3801    1.0000 </r>
       <r>    7.4220    1.0012 </r>
       <r>    8.9550   -0.0000 </r>
       <r>    9.9463   -0.0000 </r>
       <r>   11.0331   -0.0000 </r>
       <r>   11.5864   -0.0000 </r>
       <r>   11.9988   -0.0000 </r>
       <r>   12.6238   -0.0000 </r>
       <r>   13.9817    0.0000 </r>
       <r>   14.9939    0.0000 </r>
       <r>   15.0627    0.0000 </r>
       <r>   18.0194    0.0000 </r>
      </set>
      <set comment="kpoint 40">
       <r>   -1.3745    1.0000 </r>
       <r>   -0.2627    1.0000 </r>
       <r>    6.0961    1.0000 </r>
       <r>    6.0961    1.0000 </r>
       <r>    7.1507    1.0000 </r>
       <r>    7.1507    1.0000 </r>
       <r>    8.6237   -0.0000 </r>
       <r>    8.6237   -0.0000 </r>
       <r>    9.8738   -0.0000 </r>
       <r>    9.8738   -0.0000 </r>
       <r>   13.3169   -0.0000 </r>
       <r>   14.3488    0.0000 </r>
       <r>   14.7652    0.0000 </r>
       <r>   15.0466    0.0000 </r>
       <r>   16.0074    0.0000 </r>
       <r>   16.1174    0.0000 </r>
      </set>
      <set comment="kpoint 41">
       <r>   -2.2145    1.0000 </r>
       <r>    1.1130    1.0000 </r>
       <r>    5.3113    1.0000 </r>
       <r>    5.3113    1.0000 </r>
       <r>    7.8201    0.8709 </r>
       <r>    7.8201    0.8709 </r>
       <r>    8.5158   -0.0001 </r>
       <r>    8.5158   -0.0001 </r>
       <r>   11.0939   -0.0000 </r>
       <r>   11.0939   -0.0000 </r>
       <r>   11.9144   -0.0000 </r>
[...]
       <r>   15.0627    0.0000 </r>
       <r>   18.0236    0.0000 </r>
      </set>
      <set comment="kpoint 251">
       <r>   -0.5395    1.0000 </r>
       <r>    0.5660    1.0000 </r>
       <r>    2.7492    1.0000 </r>
       <r>    3.8284    1.0000 </r>
       <r>    6.9000    1.0000 </r>
       <r>    7.9481    0.3841 </r>
       <r>    9.4948   -0.0000 </r>
       <r>   10.0382   -0.0000 </r>
       <r>   10.5327   -0.0000 </r>
       <r>   11.0804   -0.0000 </r>
       <r>   12.5809   -0.0000 </r>
       <r>   13.5196    0.0000 </r>
       <r>   13.5985    0.0000 </r>
       <r>   14.4632    0.0000 </r>
       <r>   15.5442    0.0000 </r>
       <r>   18.4413    0.0000 </r>
      </set>
      <set comment="kpoint 252">
       <r>    0.2908    1.0000 </r>
       <r>    1.3898    1.0000 </r>
       <r>    1.3898    1.0000 </r>
       <r>    2.4803    1.0000 </r>
       <r>    7.6872    1.0349 </r>
       <r>    8.7347   -0.0000 </r>
       <r>    8.7347   -0.0000 </r>
       <r>    9.7802   -0.0000 </r>
       <r>   10.2870   -0.0000 </r>
       <r>   11.3238   -0.0000 </r>
       <r>   11.3238   -0.0000 </r>
       <r>   12.3521   -0.0000 </r>
       <r>   16.2173    0.0000 </r>
       <r>   16.2173    0.0000 </r>
       <r>   16.5138    0.0000 </r>
       <r>   18.4326    0.0000 </r>
      </set>
      <set comment="kpoint 253">
       <r>    0.2908    1.0000 </r>
       <r>    1.3898    1.0000 </r>
       <r>    1.3898    1.0000 </r>
       <r>    2.4803    1.0000 </r>
       <r>    7.6872    1.0349 </r>
       <r>    8.7347   -0.0000 </r>
       <r>    8.7347   -0.0000 </r>
       <r>    9.7802   -0.0000 </r>
       <r>   10.2870   -0.0000 </r>
       <r>   11.3238   -0.0000 </r>
       <r>   11.3238   -0.0000 </r>
       <r>   12.3521   -0.0000 </r>
       <r>   16.2173    0.0000 </r>
       <r>   16.2173    0.0000 </r>
       <r>   16.5138    0.0000 </r>
       <r>   18.4289    0.0000 </r>
      </set>
      <set comment="kpoint 254">
       <r>   -0.5395    1.0000 </r>
       <r>    0.5660    1.0000 </r>
       <r>    2.7492    1.0000 </r>
       <r>    3.8284    1.0000 </r>
       <r>    6.9000    1.0000 </r>
       <r>    7.9481    0.3841 </r>
       <r>    9.4948   -0.0000 </r>
       <r>   10.0382   -0.0000 </r>
       <r>   10.5327   -0.0000 </r>
       <r>   11.0804   -0.0000 </r>
       <r>   12.5809   -0.0000 </r>
       <r>   13.5196    0.0000 </r>
       <r>   13.5985    0.0000 </r>
       <r>   14.4632    0.0000 </r>
       <r>   15.5442    0.0000 </r>
       <r>   18.4413    0.0000 </r>
      </set>
      <set comment="kpoint 255">
       <r>   -1.0957    1.0000 </r>
       <r>    0.0141    1.0000 </r>
       <r>    4.3504    1.0000 </r>
       <r>    5.4091    1.0000 </r>
       <r>    6.3801    1.0000 </r>
       <r>    7.4220    1.0012 </r>
       <r>    8.9550   -0.0000 </r>
       <r>    9.9463   -0.0000 </r>
       <r>   11.0331   -0.0000 </r>
       <r>   11.5864   -0.0000 </r>
       <r>   11.9988   -0.0000 </r>
       <r>   12.6238   -0.0000 </r>
       <r>   13.9817    0.0000 </r>
       <r>   14.9939    0.0000 </r>
       <r>   15.0627    0.0000 </r>
       <r>   18.0193    0.0000 </r>
      </set>
      <set comment="kpoint 256">
       <r>   -1.3745    1.0000 </r>
       <r>   -0.2627    1.0000 </r>
       <r>    6.0961    1.0000 </r>
       <r>    6.0961    1.0000 </r>
       <r>    7.1507    1.0000 </r>
       <r>    7.1507    1.0000 </r>
       <r>    8.6237   -0.0000 </r>
       <r>    8.6237   -0.0000 </r>
       <r>    9.8738   -0.0000 </r>
       <r>    9.8738   -0.0000 </r>
       <r>   13.3169   -0.0000 </r>
       <r>   14.3488    0.0000 </r>
       <r>   14.7652    0.0000 </r>
       <r>   15.0466    0.0000 </r>
       <r>   16.0074    0.0000 </r>
       <r>   16.1174    0.0000 </r>
      </set>
     </set>
    </set>
   </array>
  </eigenvalues>
  <separator name="orbital magnetization" >
   <v name="MAGDIPOLOUT">      0.00000000      0.00000000      0.00000000</v>
  </separator>
  <dos>
   <i name="efermi">      7.92042549 </i>
   <total>
    <array>
     <dimension dim="1">gridpoints</dimension>
     <dimension dim="2">spin</dimension>
     <field>energy</field>
     <field>total</field>
     <field>integrated</field>
     <set>
      <set comment="spin 1">
       <r>    -5.0595     0.0000     0.0000 </r>
       <r>    -4.9724     0.0000     0.0000 </r>
       <r>    -4.8853     0.0000     0.0000 </r>
       <r>    -4.7982     0.0000     0.0000 </r>
       <r>    -4.7111    -0.0000    -0.0000 </r>
       <r>    -4.6240    -0.0000    -0.0000 </r>
       <r>    -4.5369    -0.0000    -0.0000 </r>
       <r>    -4.4498    -0.0000    -0.0000 </r>
       <r>    -4.3627    -0.0000    -0.0000 </r>
       <r>    -4.2756    -0.0000    -0.0000 </r>
       <r>    -4.1885    -0.0000    -0.0000 </r>
       <r>    -4.1014    -0.0000    -0.0000 </r>
       <r>    -4.0143    -0.0000    -0.0000 </r>
       <r>    -3.9272    -0.0000    -0.0000 </r>
       <r>    -3.8401    -0.0000    -0.0000 </r>
       <r>    -3.7530    -0.0000    -0.0000 </r>
       <r>    -3.6659    -0.0000    -0.0000 </r>
       <r>    -3.5788    -0.0002    -0.0000 </r>
       <r>    -3.4917    -0.0014    -0.0001 </r>
       <r>    -3.4046    -0.0047    -0.0005 </r>
       <r>    -3.3175    -0.0067    -0.0011 </r>
       <r>    -3.2304     0.0087    -0.0004 </r>
       <r>    -3.1433     0.0537     0.0043 </r>
       <r>    -3.0562     0.1003     0.0130 </r>
       <r>    -2.9691     0.1285     0.0242 </r>
       <r>    -2.8820     0.1994     0.0416 </r>
       <r>    -2.7949     0.3216     0.0696 </r>
       <r>    -2.7078     0.3652     0.1014 </r>
       <r>    -2.6207     0.3204     0.1293 </r>
       <r>    -2.5336     0.3237     0.1575 </r>
       <r>    -2.4465     0.3516     0.1881 </r>
       <r>    -2.3594     0.3418     0.2179 </r>
       <r>    -2.2723     0.3881     0.2517 </r>
       <r>    -2.1852     0.4655     0.2923 </r>
       <r>    -2.0981     0.4798     0.3341 </r>
       <r>    -2.0110     0.5642     0.3832 </r>
       <r>    -1.9239     0.7208     0.4460 </r>
       <r>    -1.8368     0.6780     0.5050 </r>
       <r>    -1.7497     0.4640     0.5454 </r>
       <r>    -1.6626     0.3421     0.5752 </r>
       <r>    -1.5755     0.3325     0.6042 </r>
       <r>    -1.4884     0.4167     0.6405 </r>
       <r>    -1.4013     0.6105     0.6937 </r>
       <r>    -1.3142     0.7250     0.7568 </r>
       <r>    -1.2271     0.7577     0.8228 </r>
       <r>    -1.1400     0.9576     0.9062 </r>
       <r>    -1.0529     1.1165     1.0035 </r>
       <r>    -0.9658     0.8754     1.0797 </r>
       <r>    -0.8787     0.4917     1.1226 </r>
       <r>    -0.7916     0.3194     1.1504 </r>
       <r>    -0.7045     0.3487     1.1808 </r>
       <r>    -0.6174     0.5535     1.2290 </r>
       <r>    -0.5303     0.8004     1.2987 </r>
       <r>    -0.4432     0.8498     1.3727 </r>
       <r>    -0.3561     0.8726     1.4487 </r>
       <r>    -0.2690     1.0519     1.5403 </r>
       <r>    -0.1819     1.0630     1.6329 </r>
       <r>    -0.0948     0.8295     1.7052 </r>
       <r>    -0.0077     0.7001     1.7661 </r>
       <r>     0.0794     0.6915     1.8264 </r>
       <r>     0.1665     0.7332     1.8902 </r>
       <r>     0.2536     0.9411     1.9722 </r>
       <r>     0.3407     1.0941     2.0675 </r>
       <r>     0.4278     1.0117     2.1556 </r>
       <r>     0.5149     1.0102     2.2436 </r>
       <r>     0.6020     1.0958     2.3391 </r>
       <r>     0.6891     0.9529     2.4221 </r>
       <r>     0.7762     0.7546     2.4878 </r>
       <r>     0.8633     0.7116     2.5498 </r>
       <r>     0.9504     0.6571     2.6070 </r>
       <r>     1.0375     0.6034     2.6596 </r>
       <r>     1.1246     0.6511     2.7163 </r>
       <r>     1.2117     0.7760     2.7839 </r>
       <r>     1.2988     1.1764     2.8863 </r>
       <r>     1.3859     1.7452     3.0383 </r>
       <r>     1.4730     1.8052     3.1956 </r>
       <r>     1.5601     1.3767     3.3155 </r>
       <r>     1.6472     1.1237     3.4134 </r>
       <r>     1.7343     1.0338     3.5034 </r>
       <r>     1.8214     0.8673     3.5789 </r>
       <r>     1.9085     0.7960     3.6483 </r>
       <r>     1.9956     0.8250     3.7201 </r>
       <r>     2.0827     0.9446     3.8024 </r>
       <r>     2.1698     1.2984     3.9155 </r>
       <r>     2.2569     1.4933     4.0456 </r>
       <r>     2.3440     1.0965     4.1411 </r>
       <r>     2.4311     0.5124     4.1857 </r>
       <r>     2.5182     0.2871     4.2107 </r>
       <r>     2.6053     0.5765     4.2609 </r>
       <r>     2.6924     1.2895     4.3732 </r>
       <r>     2.7795     1.8433     4.5338 </r>
       <r>     2.8666     1.8299     4.6932 </r>
       <r>     2.9537     1.7751     4.8478 </r>
       <r>     3.0408     1.8749     5.0111 </r>
       <r>     3.1279     1.5790     5.1486 </r>
       <r>     3.2150     1.0057     5.2362 </r>
       <r>     3.3021     0.7004     5.2972 </r>
       <r>     3.3892     0.7283     5.3607 </r>
       <r>     3.4763     1.0454     5.4517 </r>
       <r>     3.5634     1.4215     5.5755 </r>
       <r>     3.6505     1.4484     5.7017 </r>
       <r>     3.7376     1.3554     5.8198 </r>
       <r>     3.8247     1.4484     5.9459 </r>
       <r>     3.9118     1.3687     6.0651 </r>
       <r>     3.9989     1.0901     6.1601 </r>
       <r>     4.0860     1.0227     6.2491 </r>
       <r>     4.1731     1.0954     6.3446 </r>
       <r>     4.2602     1.2017     6.4492 </r>
       <r>     4.3473     1.4486     6.5754 </r>
       <r>     4.4344     1.6183     6.7164 </r>
       <r>     4.5215     1.6618     6.8611 </r>
       <r>     4.6086     1.8465     7.0219 </r>
       <r>     4.6957     1.9574     7.1924 </r>
       <r>     4.7828     1.5889     7.3308 </r>
       <r>     4.8699     0.9002     7.4092 </r>
       <r>     4.9570     0.4511     7.4485 </r>
       <r>     5.0441     0.6231     7.5028 </r>
       <r>     5.1312     1.2254     7.6095 </r>
       <r>     5.2183     1.7514     7.7621 </r>
       <r>     5.3054     2.0898     7.9441 </r>
       <r>     5.3925     2.4378     8.1564 </r>
       <r>     5.4796     2.5938     8.3823 </r>
       <r>     5.5667     2.2550     8.5788 </r>
       <r>     5.6538     1.6319     8.7209 </r>
       <r>     5.7409     1.0433     8.8118 </r>
       <r>     5.8280     0.6396     8.8675 </r>
       <r>     5.9151     0.6601     8.9250 </r>
       <r>     6.0022     1.1528     9.0254 </r>
       <r>     6.0893     1.6940     9.1729 </r>
       <r>     6.1764     1.8544     9.3344 </r>
       <r>     6.2635     1.6510     9.4782 </r>
       <r>     6.3506     1.3598     9.5967 </r>
       <r>     6.4377     1.0811     9.6908 </r>
       <r>     6.5248     0.7780     9.7586 </r>
       <r>     6.6119     0.6263     9.8132 </r>
       <r>     6.6990     0.8456     9.8868 </r>
       <r>     6.7861     1.2816     9.9984 </r>
       <r>     6.8732     1.7194    10.1482 </r>
       <r>     6.9603     2.2272    10.3422 </r>
       <r>     7.0474     2.6020    10.5688 </r>
       <r>     7.1345     2.3656    10.7749 </r>
       <r>     7.2216     1.7071    10.9236 </r>
       <r>     7.3087     1.3543    11.0415 </r>
       <r>     7.3958     1.5096    11.1730 </r>
       <r>     7.4829     1.7558    11.3259 </r>
       <r>     7.5700     1.7209    11.4758 </r>
       <r>     7.6571     1.4497    11.6021 </r>
       <r>     7.7442     1.3360    11.7185 </r>
       <r>     7.8313     1.5345    11.8521 </r>
       <r>     7.9184     1.6607    11.9968 </r>
       <r>     8.0055     1.4664    12.1245 </r>
       <r>     8.0926     1.2232    12.2310 </r>
       <r>     8.1797     1.1819    12.3340 </r>
       <r>     8.2668     1.2779    12.4453 </r>
       <r>     8.3539     1.4046    12.5676 </r>
       <r>     8.4410     1.5820    12.7054 </r>
       <r>     8.5281     1.9526    12.8755 </r>
       <r>     8.6152     2.5255    13.0955 </r>
       <r>     8.7023     2.8452    13.3433 </r>
       <r>     8.7894     2.4180    13.5539 </r>
       <r>     8.8765     1.5470    13.6886 </r>
       <r>     8.9636     0.9727    13.7733 </r>
       <r>     9.0507     0.8452    13.8470 </r>
       <r>     9.1378     0.9420    13.9290 </r>
       <r>     9.2249     1.2286    14.0360 </r>
       <r>     9.3120     1.6474    14.1795 </r>
       <r>     9.3991     1.9954    14.3533 </r>
       <r>     9.4862     2.0750    14.5340 </r>
       <r>     9.5733     1.7220    14.6840 </r>
       <r>     9.6604     1.0940    14.7793 </r>
       <r>     9.7475     0.9056    14.8582 </r>
       <r>     9.8346     1.6698    15.0036 </r>
       <r>     9.9217     2.8839    15.2548 </r>
       <r>    10.0088     3.5268    15.5620 </r>
       <r>    10.0959     3.1007    15.8321 </r>
       <r>    10.1830     2.1139    16.0162 </r>
       <r>    10.2701     1.5685    16.1528 </r>
       <r>    10.3572     1.6843    16.2995 </r>
       <r>    10.4443     1.7802    16.4546 </r>
       <r>    10.5314     1.4871    16.5841 </r>
       <r>    10.6185     1.0914    16.6792 </r>
       <r>    10.7056     0.9371    16.7608 </r>
       <r>    10.7927     1.0695    16.8539 </r>
       <r>    10.8798     1.4260    16.9781 </r>
       <r>    10.9669     2.1070    17.1617 </r>
       <r>    11.0540     2.9132    17.4154 </r>
       <r>    11.1411     3.0814    17.6838 </r>
       <r>    11.2282     2.4227    17.8948 </r>
       <r>    11.3153     1.7383    18.0462 </r>
       <r>    11.4024     1.4157    18.1695 </r>
       <r>    11.4895     1.2061    18.2746 </r>
       <r>    11.5766     1.2459    18.3831 </r>
       <r>    11.6637     1.7058    18.5317 </r>
       <r>    11.7508     2.1080    18.7153 </r>
       <r>    11.8379     1.9929    18.8889 </r>
       <r>    11.9250     1.6505    19.0326 </r>
       <r>    12.0121     1.5213    19.1651 </r>
       <r>    12.0992     1.5943    19.3040 </r>
       <r>    12.1863     1.7941    19.4602 </r>
       <r>    12.2734     2.0517    19.6390 </r>
       <r>    12.3605     2.2488    19.8348 </r>
       <r>    12.4476     2.5769    20.0593 </r>
       <r>    12.5347     3.1725    20.3356 </r>
       <r>    12.6218     3.5850    20.6479 </r>
       <r>    12.7089     3.4156    20.9453 </r>
       <r>    12.7960     2.8313    21.1920 </r>
       <r>    12.8831     2.0819    21.3733 </r>
       <r>    12.9702     1.2949    21.4861 </r>
       <r>    13.0573     0.7178    21.5486 </r>
       <r>    13.1444     0.6812    21.6079 </r>
       <r>    13.2315     1.1911    21.7117 </r>
       <r>    13.3186     1.8868    21.8760 </r>
       <r>    13.4057     2.6397    22.1059 </r>
       <r>    13.4928     3.3506    22.3978 </r>
       <r>    13.5799     3.3700    22.6913 </r>
       <r>    13.6670     2.5156    22.9104 </r>
       <r>    13.7541     1.8022    23.0674 </r>
       <r>    13.8412     2.0061    23.2421 </r>
       <r>    13.9283     2.6082    23.4693 </r>
       <r>    14.0154     2.6607    23.7010 </r>
       <r>    14.1025     2.0427    23.8790 </r>
       <r>    14.1896     1.5227    24.0116 </r>
       <r>    14.2767     1.6041    24.1513 </r>
       <r>    14.3638     1.9468    24.3209 </r>
       <r>    14.4509     2.0676    24.5009 </r>
       <r>    14.5380     1.9590    24.6716 </r>
       <r>    14.6251     2.0120    24.8468 </r>
       <r>    14.7122     2.3866    25.0547 </r>
       <r>    14.7993     2.6131    25.2823 </r>
       <r>    14.8864     2.4799    25.4983 </r>
       <r>    14.9735     2.4903    25.7152 </r>
       <r>    15.0606     2.6823    25.9488 </r>
       <r>    15.1477     2.5566    26.1715 </r>
       <r>    15.2348     2.1981    26.3630 </r>
       <r>    15.3219     1.8983    26.5283 </r>
       <r>    15.4090     1.6827    26.6749 </r>
       <r>    15.4961     1.7744    26.8294 </r>
       <r>    15.5832     2.2332    27.0239 </r>
       <r>    15.6703     2.5923    27.2497 </r>
       <r>    15.7574     2.5517    27.4720 </r>
       <r>    15.8445     2.2712    27.6698 </r>
       <r>    15.9316     1.9036    27.8356 </r>
       <r>    16.0187     1.5693    27.9723 </r>
       <r>    16.1058     1.5837    28.1102 </r>
       <r>    16.1929     1.9328    28.2786 </r>
       <r>    16.2800     2.1109    28.4624 </r>
       <r>    16.3671     2.2178    28.6556 </r>
       <r>    16.4543     2.6853    28.8895 </r>
       <r>    16.5414     2.8313    29.1361 </r>
       <r>    16.6285     2.0840    29.3176 </r>
       <r>    16.7156     1.4409    29.4431 </r>
       <r>    16.8027     1.6580    29.5875 </r>
       <r>    16.8898     2.0167    29.7632 </r>
       <r>    16.9769     1.8101    29.9209 </r>
       <r>    17.0640     1.4155    30.0441 </r>
       <r>    17.1511     1.5006    30.1749 </r>
       <r>    17.2382     1.8580    30.3367 </r>
       <r>    17.3253     1.7185    30.4864 </r>
       <r>    17.4124     1.1208    30.5840 </r>
       <r>    17.4995     0.8049    30.6541 </r>
       <r>    17.5866     0.9150    30.7338 </r>
       <r>    17.6737     0.9486    30.8164 </r>
       <r>    17.7608     0.6748    30.8752 </r>
       <r>    17.8479     0.4605    30.9153 </r>
       <r>    17.9350     0.6784    30.9744 </r>
       <r>    18.0221     1.0320    31.0643 </r>
       <r>    18.1092     0.9782    31.1495 </r>
       <r>    18.1963     0.6445    31.2056 </r>
       <r>    18.2834     0.5774    31.2559 </r>
       <r>    18.3705     0.8941    31.3338 </r>
       <r>    18.4576     1.2229    31.4403 </r>
       <r>    18.5447     1.3096    31.5544 </r>
       <r>    18.6318     1.2899    31.6667 </r>
       <r>    18.7189     1.1578    31.7676 </r>
       <r>    18.8060     0.7731    31.8349 </r>
       <r>    18.8931     0.4224    31.8717 </r>
       <r>    18.9802     0.3998    31.9065 </r>
       <r>    19.0673     0.4959    31.9497 </r>
       <r>    19.1544     0.4131    31.9857 </r>
       <r>    19.2415     0.1880    32.0021 </r>
       <r>    19.3286     0.0211    32.0039 </r>
       <r>    19.4157    -0.0245    32.0018 </r>
       <r>    19.5028    -0.0151    32.0004 </r>
       <r>    19.5899    -0.0043    32.0001 </r>
       <r>    19.6770    -0.0007    32.0000 </r>
       <r>    19.7641    -0.0001    32.0000 </r>
       <r>    19.8512    -0.0000    32.0000 </r>
       <r>    19.9383    -0.0000    32.0000 </r>
       <r>    20.0254    -0.0000    32.0000 </r>
       <r>    20.1125    -0.0000    32.0000 </r>
       <r>    20.1996    -0.0000    32.0000 </r>
       <r>    20.2867    -0.0000    32.0000 </r>
       <r>    20.3738    -0.0000    32.0000 </r>
       <r>    20.4609     0.0000    32.0000 </r>
       <r>    20.5480     0.0000    32.0000 </r>
       <r>    20.6351     0.0000    32.0000 </r>
       <r>    20.7222     0.0000    32.0000 </r>
       <r>    20.8093     0.0000    32.0000 </r>
       <r>    20.8964     0.0000    32.0000 </r>
       <r>    20.9835     0.0000    32.0000 </r>
       <r>    21.0706     0.0000    32.0000 </r>
      </set>
     </set>
    </array>
   </total>
  </dos>
 </calculation>
 <structure name="finalpos" >
  <crystal>
   <varray name="basis" >
    <v>       4.04350661      -0.00000000      -0.00000000 </v>
    <v>      -0.00000000       4.04350661      -0.00000000 </v>
    <v>      -0.00000000      -0.00000000       4.04350661 </v>
   </varray>
   <i name="volume">     66.11111359 </i>
   <varray name="rec_basis" >
    <v>       0.24731009       0.00000000       0.00000000 </v>
    <v>       0.00000000       0.24731009       0.00000000 </v>
    <v>       0.00000000       0.00000000       0.24731009 </v>
   </varray>
  </crystal>
  <varray name="positions" >
   <v>       0.00000000       0.00000000       0.00000000 </v>
   <v>      -0.00000000       0.50000000       0.50000000 </v>
   <v>       0.50000000       0.00000000       0.50000000 </v>
   <v>       0.50000000       0.50000000       0.00000000 </v>
  </varray>
 </structure>
</modeling>
