Opt                                     
           1
     4.050000    0.000000    0.000000
     0.000000    4.050000    0.000000
     0.000000    0.000000    4.050000
   Al
   4
Direct configuration=     1
   0.00000000  0.00000000  0.00000000
   0.00000000  0.50000000  0.50000000
   0.50000000  0.00000000  0.50000000
   0.50000000  0.50000000  0.00000000
Opt                                     
           1
     4.048377   -0.000000   -0.000000
    -0.000000    4.048377   -0.000000
    -0.000000   -0.000000    4.048377
   Al
   4
Direct configuration=     2
   0.00000000  0.00000000  0.00000000
  -0.00000000  0.50000000  0.50000000
   0.50000000  0.00000000  0.50000000
   0.50000000  0.50000000  0.00000000
Opt                                     
           1
     4.043507   -0.000000   -0.000000
    -0.000000    4.043507   -0.000000
    -0.000000   -0.000000    4.043507
   Al
   4
Direct configuration=     3
   0.00000000  0.00000000  0.00000000
  -0.00000000  0.50000000  0.50000000
   0.50000000  0.00000000  0.50000000
   0.50000000  0.50000000  0.00000000
